n -t 0 -s 0 -S DLABEL -l "N0" -L ""
V -t * -v 1.0a5 -a 0
A -t * -n 1 -p 0 -o 0x7fffffff -c 30 -a 1
A -t * -h 1 -m 1073741823 -s 0
c -t * -i 1 -n red
n -t * -a 4 -s 4 -S UP -v circle -c black -i black
n -t * -a 0 -s 0 -S UP -v circle -c black -i black
n -t * -a 1 -s 1 -S UP -v circle -c black -i black
n -t * -a 2 -s 2 -S UP -v circle -c black -i black
n -t * -a 3 -s 3 -S UP -v circle -c black -i black
l -t * -s 0 -d 1 -S UP -r 1000000 -D 0.01 -c black -o right
l -t * -s 1 -d 3 -S UP -r 1000000 -D 0.01 -c black -o down
l -t * -s 0 -d 2 -S UP -r 1000000 -D 0.02 -c black -o down
l -t * -s 2 -d 4 -S UP -r 1000000 -D 0.014999999999999999 -c black -o right-up
l -t * -s 2 -d 3 -S UP -r 2000000 -D 0.014999999999999999 -c black -o right
+ -t 1e-05 -s 0 -d 1 -p cbr -e 1000 -c 1 -i 0 -a 1 -x {0.0 3.0 0 ------- null}
- -t 1e-05 -s 0 -d 1 -p cbr -e 1000 -c 1 -i 0 -a 1 -x {0.0 3.0 0 ------- null}
h -t 1e-05 -s 0 -d 1 -p cbr -e 1000 -c 1 -i 0 -a 1 -x {0.0 3.0 -1 ------- null}
+ -t 0.01001 -s 0 -d 1 -p cbr -e 1000 -c 1 -i 1 -a 1 -x {0.0 3.0 1 ------- null}
- -t 0.01001 -s 0 -d 1 -p cbr -e 1000 -c 1 -i 1 -a 1 -x {0.0 3.0 1 ------- null}
h -t 0.01001 -s 0 -d 1 -p cbr -e 1000 -c 1 -i 1 -a 1 -x {0.0 3.0 -1 ------- null}
r -t 0.01801 -s 0 -d 1 -p cbr -e 1000 -c 1 -i 0 -a 1 -x {0.0 3.0 0 ------- null}
+ -t 0.01801 -s 1 -d 3 -p cbr -e 1000 -c 1 -i 0 -a 1 -x {0.0 3.0 0 ------- null}
- -t 0.01801 -s 1 -d 3 -p cbr -e 1000 -c 1 -i 0 -a 1 -x {0.0 3.0 0 ------- null}
h -t 0.01801 -s 1 -d 3 -p cbr -e 1000 -c 1 -i 0 -a 1 -x {0.0 3.0 -1 ------- null}
+ -t 0.02001 -s 0 -d 1 -p cbr -e 1000 -c 1 -i 2 -a 1 -x {0.0 3.0 2 ------- null}
- -t 0.02001 -s 0 -d 1 -p cbr -e 1000 -c 1 -i 2 -a 1 -x {0.0 3.0 2 ------- null}
h -t 0.02001 -s 0 -d 1 -p cbr -e 1000 -c 1 -i 2 -a 1 -x {0.0 3.0 -1 ------- null}
r -t 0.02801 -s 0 -d 1 -p cbr -e 1000 -c 1 -i 1 -a 1 -x {0.0 3.0 1 ------- null}
+ -t 0.02801 -s 1 -d 3 -p cbr -e 1000 -c 1 -i 1 -a 1 -x {0.0 3.0 1 ------- null}
- -t 0.02801 -s 1 -d 3 -p cbr -e 1000 -c 1 -i 1 -a 1 -x {0.0 3.0 1 ------- null}
h -t 0.02801 -s 1 -d 3 -p cbr -e 1000 -c 1 -i 1 -a 1 -x {0.0 3.0 -1 ------- null}
+ -t 0.03001 -s 0 -d 1 -p cbr -e 1000 -c 1 -i 3 -a 1 -x {0.0 3.0 3 ------- null}
- -t 0.03001 -s 0 -d 1 -p cbr -e 1000 -c 1 -i 3 -a 1 -x {0.0 3.0 3 ------- null}
h -t 0.03001 -s 0 -d 1 -p cbr -e 1000 -c 1 -i 3 -a 1 -x {0.0 3.0 -1 ------- null}
r -t 0.03601 -s 1 -d 3 -p cbr -e 1000 -c 1 -i 0 -a 1 -x {0.0 3.0 0 ------- null}
r -t 0.03801 -s 0 -d 1 -p cbr -e 1000 -c 1 -i 2 -a 1 -x {0.0 3.0 2 ------- null}
+ -t 0.03801 -s 1 -d 3 -p cbr -e 1000 -c 1 -i 2 -a 1 -x {0.0 3.0 2 ------- null}
- -t 0.03801 -s 1 -d 3 -p cbr -e 1000 -c 1 -i 2 -a 1 -x {0.0 3.0 2 ------- null}
h -t 0.03801 -s 1 -d 3 -p cbr -e 1000 -c 1 -i 2 -a 1 -x {0.0 3.0 -1 ------- null}
+ -t 0.04001 -s 0 -d 1 -p cbr -e 1000 -c 1 -i 4 -a 1 -x {0.0 3.0 4 ------- null}
- -t 0.04001 -s 0 -d 1 -p cbr -e 1000 -c 1 -i 4 -a 1 -x {0.0 3.0 4 ------- null}
h -t 0.04001 -s 0 -d 1 -p cbr -e 1000 -c 1 -i 4 -a 1 -x {0.0 3.0 -1 ------- null}
r -t 0.04601 -s 1 -d 3 -p cbr -e 1000 -c 1 -i 1 -a 1 -x {0.0 3.0 1 ------- null}
r -t 0.04801 -s 0 -d 1 -p cbr -e 1000 -c 1 -i 3 -a 1 -x {0.0 3.0 3 ------- null}
+ -t 0.04801 -s 1 -d 3 -p cbr -e 1000 -c 1 -i 3 -a 1 -x {0.0 3.0 3 ------- null}
- -t 0.04801 -s 1 -d 3 -p cbr -e 1000 -c 1 -i 3 -a 1 -x {0.0 3.0 3 ------- null}
h -t 0.04801 -s 1 -d 3 -p cbr -e 1000 -c 1 -i 3 -a 1 -x {0.0 3.0 -1 ------- null}
+ -t 0.05001 -s 0 -d 1 -p cbr -e 1000 -c 1 -i 5 -a 1 -x {0.0 3.0 5 ------- null}
- -t 0.05001 -s 0 -d 1 -p cbr -e 1000 -c 1 -i 5 -a 1 -x {0.0 3.0 5 ------- null}
h -t 0.05001 -s 0 -d 1 -p cbr -e 1000 -c 1 -i 5 -a 1 -x {0.0 3.0 -1 ------- null}
r -t 0.05601 -s 1 -d 3 -p cbr -e 1000 -c 1 -i 2 -a 1 -x {0.0 3.0 2 ------- null}
r -t 0.05801 -s 0 -d 1 -p cbr -e 1000 -c 1 -i 4 -a 1 -x {0.0 3.0 4 ------- null}
+ -t 0.05801 -s 1 -d 3 -p cbr -e 1000 -c 1 -i 4 -a 1 -x {0.0 3.0 4 ------- null}
- -t 0.05801 -s 1 -d 3 -p cbr -e 1000 -c 1 -i 4 -a 1 -x {0.0 3.0 4 ------- null}
h -t 0.05801 -s 1 -d 3 -p cbr -e 1000 -c 1 -i 4 -a 1 -x {0.0 3.0 -1 ------- null}
+ -t 0.06001 -s 0 -d 1 -p cbr -e 1000 -c 1 -i 6 -a 1 -x {0.0 3.0 6 ------- null}
- -t 0.06001 -s 0 -d 1 -p cbr -e 1000 -c 1 -i 6 -a 1 -x {0.0 3.0 6 ------- null}
h -t 0.06001 -s 0 -d 1 -p cbr -e 1000 -c 1 -i 6 -a 1 -x {0.0 3.0 -1 ------- null}
r -t 0.06601 -s 1 -d 3 -p cbr -e 1000 -c 1 -i 3 -a 1 -x {0.0 3.0 3 ------- null}
r -t 0.06801 -s 0 -d 1 -p cbr -e 1000 -c 1 -i 5 -a 1 -x {0.0 3.0 5 ------- null}
+ -t 0.06801 -s 1 -d 3 -p cbr -e 1000 -c 1 -i 5 -a 1 -x {0.0 3.0 5 ------- null}
- -t 0.06801 -s 1 -d 3 -p cbr -e 1000 -c 1 -i 5 -a 1 -x {0.0 3.0 5 ------- null}
h -t 0.06801 -s 1 -d 3 -p cbr -e 1000 -c 1 -i 5 -a 1 -x {0.0 3.0 -1 ------- null}
+ -t 0.07001 -s 0 -d 1 -p cbr -e 1000 -c 1 -i 7 -a 1 -x {0.0 3.0 7 ------- null}
- -t 0.07001 -s 0 -d 1 -p cbr -e 1000 -c 1 -i 7 -a 1 -x {0.0 3.0 7 ------- null}
h -t 0.07001 -s 0 -d 1 -p cbr -e 1000 -c 1 -i 7 -a 1 -x {0.0 3.0 -1 ------- null}
r -t 0.07601 -s 1 -d 3 -p cbr -e 1000 -c 1 -i 4 -a 1 -x {0.0 3.0 4 ------- null}
r -t 0.07801 -s 0 -d 1 -p cbr -e 1000 -c 1 -i 6 -a 1 -x {0.0 3.0 6 ------- null}
+ -t 0.07801 -s 1 -d 3 -p cbr -e 1000 -c 1 -i 6 -a 1 -x {0.0 3.0 6 ------- null}
- -t 0.07801 -s 1 -d 3 -p cbr -e 1000 -c 1 -i 6 -a 1 -x {0.0 3.0 6 ------- null}
h -t 0.07801 -s 1 -d 3 -p cbr -e 1000 -c 1 -i 6 -a 1 -x {0.0 3.0 -1 ------- null}
+ -t 0.08001 -s 0 -d 1 -p cbr -e 1000 -c 1 -i 8 -a 1 -x {0.0 3.0 8 ------- null}
- -t 0.08001 -s 0 -d 1 -p cbr -e 1000 -c 1 -i 8 -a 1 -x {0.0 3.0 8 ------- null}
h -t 0.08001 -s 0 -d 1 -p cbr -e 1000 -c 1 -i 8 -a 1 -x {0.0 3.0 -1 ------- null}
r -t 0.08601 -s 1 -d 3 -p cbr -e 1000 -c 1 -i 5 -a 1 -x {0.0 3.0 5 ------- null}
r -t 0.08801 -s 0 -d 1 -p cbr -e 1000 -c 1 -i 7 -a 1 -x {0.0 3.0 7 ------- null}
+ -t 0.08801 -s 1 -d 3 -p cbr -e 1000 -c 1 -i 7 -a 1 -x {0.0 3.0 7 ------- null}
- -t 0.08801 -s 1 -d 3 -p cbr -e 1000 -c 1 -i 7 -a 1 -x {0.0 3.0 7 ------- null}
h -t 0.08801 -s 1 -d 3 -p cbr -e 1000 -c 1 -i 7 -a 1 -x {0.0 3.0 -1 ------- null}
+ -t 0.09001 -s 0 -d 1 -p cbr -e 1000 -c 1 -i 9 -a 1 -x {0.0 3.0 9 ------- null}
- -t 0.09001 -s 0 -d 1 -p cbr -e 1000 -c 1 -i 9 -a 1 -x {0.0 3.0 9 ------- null}
h -t 0.09001 -s 0 -d 1 -p cbr -e 1000 -c 1 -i 9 -a 1 -x {0.0 3.0 -1 ------- null}
r -t 0.09601 -s 1 -d 3 -p cbr -e 1000 -c 1 -i 6 -a 1 -x {0.0 3.0 6 ------- null}
r -t 0.09801 -s 0 -d 1 -p cbr -e 1000 -c 1 -i 8 -a 1 -x {0.0 3.0 8 ------- null}
+ -t 0.09801 -s 1 -d 3 -p cbr -e 1000 -c 1 -i 8 -a 1 -x {0.0 3.0 8 ------- null}
- -t 0.09801 -s 1 -d 3 -p cbr -e 1000 -c 1 -i 8 -a 1 -x {0.0 3.0 8 ------- null}
h -t 0.09801 -s 1 -d 3 -p cbr -e 1000 -c 1 -i 8 -a 1 -x {0.0 3.0 -1 ------- null}
+ -t 0.10001 -s 0 -d 1 -p cbr -e 1000 -c 1 -i 10 -a 1 -x {0.0 3.0 10 ------- null}
- -t 0.10001 -s 0 -d 1 -p cbr -e 1000 -c 1 -i 10 -a 1 -x {0.0 3.0 10 ------- null}
h -t 0.10001 -s 0 -d 1 -p cbr -e 1000 -c 1 -i 10 -a 1 -x {0.0 3.0 -1 ------- null}
r -t 0.10601 -s 1 -d 3 -p cbr -e 1000 -c 1 -i 7 -a 1 -x {0.0 3.0 7 ------- null}
r -t 0.10801 -s 0 -d 1 -p cbr -e 1000 -c 1 -i 9 -a 1 -x {0.0 3.0 9 ------- null}
+ -t 0.10801 -s 1 -d 3 -p cbr -e 1000 -c 1 -i 9 -a 1 -x {0.0 3.0 9 ------- null}
- -t 0.10801 -s 1 -d 3 -p cbr -e 1000 -c 1 -i 9 -a 1 -x {0.0 3.0 9 ------- null}
h -t 0.10801 -s 1 -d 3 -p cbr -e 1000 -c 1 -i 9 -a 1 -x {0.0 3.0 -1 ------- null}
+ -t 0.11001 -s 0 -d 1 -p cbr -e 1000 -c 1 -i 11 -a 1 -x {0.0 3.0 11 ------- null}
- -t 0.11001 -s 0 -d 1 -p cbr -e 1000 -c 1 -i 11 -a 1 -x {0.0 3.0 11 ------- null}
h -t 0.11001 -s 0 -d 1 -p cbr -e 1000 -c 1 -i 11 -a 1 -x {0.0 3.0 -1 ------- null}
r -t 0.11601 -s 1 -d 3 -p cbr -e 1000 -c 1 -i 8 -a 1 -x {0.0 3.0 8 ------- null}
r -t 0.11801 -s 0 -d 1 -p cbr -e 1000 -c 1 -i 10 -a 1 -x {0.0 3.0 10 ------- null}
+ -t 0.11801 -s 1 -d 3 -p cbr -e 1000 -c 1 -i 10 -a 1 -x {0.0 3.0 10 ------- null}
- -t 0.11801 -s 1 -d 3 -p cbr -e 1000 -c 1 -i 10 -a 1 -x {0.0 3.0 10 ------- null}
h -t 0.11801 -s 1 -d 3 -p cbr -e 1000 -c 1 -i 10 -a 1 -x {0.0 3.0 -1 ------- null}
+ -t 0.12001 -s 0 -d 1 -p cbr -e 1000 -c 1 -i 12 -a 1 -x {0.0 3.0 12 ------- null}
- -t 0.12001 -s 0 -d 1 -p cbr -e 1000 -c 1 -i 12 -a 1 -x {0.0 3.0 12 ------- null}
h -t 0.12001 -s 0 -d 1 -p cbr -e 1000 -c 1 -i 12 -a 1 -x {0.0 3.0 -1 ------- null}
r -t 0.12601 -s 1 -d 3 -p cbr -e 1000 -c 1 -i 9 -a 1 -x {0.0 3.0 9 ------- null}
r -t 0.12801 -s 0 -d 1 -p cbr -e 1000 -c 1 -i 11 -a 1 -x {0.0 3.0 11 ------- null}
+ -t 0.12801 -s 1 -d 3 -p cbr -e 1000 -c 1 -i 11 -a 1 -x {0.0 3.0 11 ------- null}
- -t 0.12801 -s 1 -d 3 -p cbr -e 1000 -c 1 -i 11 -a 1 -x {0.0 3.0 11 ------- null}
h -t 0.12801 -s 1 -d 3 -p cbr -e 1000 -c 1 -i 11 -a 1 -x {0.0 3.0 -1 ------- null}
+ -t 0.13001 -s 0 -d 1 -p cbr -e 1000 -c 1 -i 13 -a 1 -x {0.0 3.0 13 ------- null}
- -t 0.13001 -s 0 -d 1 -p cbr -e 1000 -c 1 -i 13 -a 1 -x {0.0 3.0 13 ------- null}
h -t 0.13001 -s 0 -d 1 -p cbr -e 1000 -c 1 -i 13 -a 1 -x {0.0 3.0 -1 ------- null}
r -t 0.13601 -s 1 -d 3 -p cbr -e 1000 -c 1 -i 10 -a 1 -x {0.0 3.0 10 ------- null}
r -t 0.13801 -s 0 -d 1 -p cbr -e 1000 -c 1 -i 12 -a 1 -x {0.0 3.0 12 ------- null}
+ -t 0.13801 -s 1 -d 3 -p cbr -e 1000 -c 1 -i 12 -a 1 -x {0.0 3.0 12 ------- null}
- -t 0.13801 -s 1 -d 3 -p cbr -e 1000 -c 1 -i 12 -a 1 -x {0.0 3.0 12 ------- null}
h -t 0.13801 -s 1 -d 3 -p cbr -e 1000 -c 1 -i 12 -a 1 -x {0.0 3.0 -1 ------- null}
+ -t 0.14001 -s 0 -d 1 -p cbr -e 1000 -c 1 -i 14 -a 1 -x {0.0 3.0 14 ------- null}
- -t 0.14001 -s 0 -d 1 -p cbr -e 1000 -c 1 -i 14 -a 1 -x {0.0 3.0 14 ------- null}
h -t 0.14001 -s 0 -d 1 -p cbr -e 1000 -c 1 -i 14 -a 1 -x {0.0 3.0 -1 ------- null}
r -t 0.14601 -s 1 -d 3 -p cbr -e 1000 -c 1 -i 11 -a 1 -x {0.0 3.0 11 ------- null}
r -t 0.14801 -s 0 -d 1 -p cbr -e 1000 -c 1 -i 13 -a 1 -x {0.0 3.0 13 ------- null}
+ -t 0.14801 -s 1 -d 3 -p cbr -e 1000 -c 1 -i 13 -a 1 -x {0.0 3.0 13 ------- null}
- -t 0.14801 -s 1 -d 3 -p cbr -e 1000 -c 1 -i 13 -a 1 -x {0.0 3.0 13 ------- null}
h -t 0.14801 -s 1 -d 3 -p cbr -e 1000 -c 1 -i 13 -a 1 -x {0.0 3.0 -1 ------- null}
+ -t 0.15001 -s 0 -d 1 -p cbr -e 1000 -c 1 -i 15 -a 1 -x {0.0 3.0 15 ------- null}
- -t 0.15001 -s 0 -d 1 -p cbr -e 1000 -c 1 -i 15 -a 1 -x {0.0 3.0 15 ------- null}
h -t 0.15001 -s 0 -d 1 -p cbr -e 1000 -c 1 -i 15 -a 1 -x {0.0 3.0 -1 ------- null}
r -t 0.15601 -s 1 -d 3 -p cbr -e 1000 -c 1 -i 12 -a 1 -x {0.0 3.0 12 ------- null}
r -t 0.15801 -s 0 -d 1 -p cbr -e 1000 -c 1 -i 14 -a 1 -x {0.0 3.0 14 ------- null}
+ -t 0.15801 -s 1 -d 3 -p cbr -e 1000 -c 1 -i 14 -a 1 -x {0.0 3.0 14 ------- null}
- -t 0.15801 -s 1 -d 3 -p cbr -e 1000 -c 1 -i 14 -a 1 -x {0.0 3.0 14 ------- null}
h -t 0.15801 -s 1 -d 3 -p cbr -e 1000 -c 1 -i 14 -a 1 -x {0.0 3.0 -1 ------- null}
+ -t 0.16001 -s 0 -d 1 -p cbr -e 1000 -c 1 -i 16 -a 1 -x {0.0 3.0 16 ------- null}
- -t 0.16001 -s 0 -d 1 -p cbr -e 1000 -c 1 -i 16 -a 1 -x {0.0 3.0 16 ------- null}
h -t 0.16001 -s 0 -d 1 -p cbr -e 1000 -c 1 -i 16 -a 1 -x {0.0 3.0 -1 ------- null}
r -t 0.16601 -s 1 -d 3 -p cbr -e 1000 -c 1 -i 13 -a 1 -x {0.0 3.0 13 ------- null}
r -t 0.16801 -s 0 -d 1 -p cbr -e 1000 -c 1 -i 15 -a 1 -x {0.0 3.0 15 ------- null}
+ -t 0.16801 -s 1 -d 3 -p cbr -e 1000 -c 1 -i 15 -a 1 -x {0.0 3.0 15 ------- null}
- -t 0.16801 -s 1 -d 3 -p cbr -e 1000 -c 1 -i 15 -a 1 -x {0.0 3.0 15 ------- null}
h -t 0.16801 -s 1 -d 3 -p cbr -e 1000 -c 1 -i 15 -a 1 -x {0.0 3.0 -1 ------- null}
+ -t 0.17001 -s 0 -d 1 -p cbr -e 1000 -c 1 -i 17 -a 1 -x {0.0 3.0 17 ------- null}
- -t 0.17001 -s 0 -d 1 -p cbr -e 1000 -c 1 -i 17 -a 1 -x {0.0 3.0 17 ------- null}
h -t 0.17001 -s 0 -d 1 -p cbr -e 1000 -c 1 -i 17 -a 1 -x {0.0 3.0 -1 ------- null}
r -t 0.17601 -s 1 -d 3 -p cbr -e 1000 -c 1 -i 14 -a 1 -x {0.0 3.0 14 ------- null}
r -t 0.17801 -s 0 -d 1 -p cbr -e 1000 -c 1 -i 16 -a 1 -x {0.0 3.0 16 ------- null}
+ -t 0.17801 -s 1 -d 3 -p cbr -e 1000 -c 1 -i 16 -a 1 -x {0.0 3.0 16 ------- null}
- -t 0.17801 -s 1 -d 3 -p cbr -e 1000 -c 1 -i 16 -a 1 -x {0.0 3.0 16 ------- null}
h -t 0.17801 -s 1 -d 3 -p cbr -e 1000 -c 1 -i 16 -a 1 -x {0.0 3.0 -1 ------- null}
+ -t 0.18001 -s 0 -d 1 -p cbr -e 1000 -c 1 -i 18 -a 1 -x {0.0 3.0 18 ------- null}
- -t 0.18001 -s 0 -d 1 -p cbr -e 1000 -c 1 -i 18 -a 1 -x {0.0 3.0 18 ------- null}
h -t 0.18001 -s 0 -d 1 -p cbr -e 1000 -c 1 -i 18 -a 1 -x {0.0 3.0 -1 ------- null}
r -t 0.18601 -s 1 -d 3 -p cbr -e 1000 -c 1 -i 15 -a 1 -x {0.0 3.0 15 ------- null}
r -t 0.18801 -s 0 -d 1 -p cbr -e 1000 -c 1 -i 17 -a 1 -x {0.0 3.0 17 ------- null}
+ -t 0.18801 -s 1 -d 3 -p cbr -e 1000 -c 1 -i 17 -a 1 -x {0.0 3.0 17 ------- null}
- -t 0.18801 -s 1 -d 3 -p cbr -e 1000 -c 1 -i 17 -a 1 -x {0.0 3.0 17 ------- null}
h -t 0.18801 -s 1 -d 3 -p cbr -e 1000 -c 1 -i 17 -a 1 -x {0.0 3.0 -1 ------- null}
+ -t 0.19001 -s 0 -d 1 -p cbr -e 1000 -c 1 -i 19 -a 1 -x {0.0 3.0 19 ------- null}
- -t 0.19001 -s 0 -d 1 -p cbr -e 1000 -c 1 -i 19 -a 1 -x {0.0 3.0 19 ------- null}
h -t 0.19001 -s 0 -d 1 -p cbr -e 1000 -c 1 -i 19 -a 1 -x {0.0 3.0 -1 ------- null}
r -t 0.19601 -s 1 -d 3 -p cbr -e 1000 -c 1 -i 16 -a 1 -x {0.0 3.0 16 ------- null}
r -t 0.19801 -s 0 -d 1 -p cbr -e 1000 -c 1 -i 18 -a 1 -x {0.0 3.0 18 ------- null}
+ -t 0.19801 -s 1 -d 3 -p cbr -e 1000 -c 1 -i 18 -a 1 -x {0.0 3.0 18 ------- null}
- -t 0.19801 -s 1 -d 3 -p cbr -e 1000 -c 1 -i 18 -a 1 -x {0.0 3.0 18 ------- null}
h -t 0.19801 -s 1 -d 3 -p cbr -e 1000 -c 1 -i 18 -a 1 -x {0.0 3.0 -1 ------- null}
+ -t 0.20001 -s 0 -d 1 -p cbr -e 1000 -c 1 -i 20 -a 1 -x {0.0 3.0 20 ------- null}
- -t 0.20001 -s 0 -d 1 -p cbr -e 1000 -c 1 -i 20 -a 1 -x {0.0 3.0 20 ------- null}
h -t 0.20001 -s 0 -d 1 -p cbr -e 1000 -c 1 -i 20 -a 1 -x {0.0 3.0 -1 ------- null}
r -t 0.20601 -s 1 -d 3 -p cbr -e 1000 -c 1 -i 17 -a 1 -x {0.0 3.0 17 ------- null}
r -t 0.20801 -s 0 -d 1 -p cbr -e 1000 -c 1 -i 19 -a 1 -x {0.0 3.0 19 ------- null}
+ -t 0.20801 -s 1 -d 3 -p cbr -e 1000 -c 1 -i 19 -a 1 -x {0.0 3.0 19 ------- null}
- -t 0.20801 -s 1 -d 3 -p cbr -e 1000 -c 1 -i 19 -a 1 -x {0.0 3.0 19 ------- null}
h -t 0.20801 -s 1 -d 3 -p cbr -e 1000 -c 1 -i 19 -a 1 -x {0.0 3.0 -1 ------- null}
+ -t 0.21001 -s 0 -d 1 -p cbr -e 1000 -c 1 -i 21 -a 1 -x {0.0 3.0 21 ------- null}
- -t 0.21001 -s 0 -d 1 -p cbr -e 1000 -c 1 -i 21 -a 1 -x {0.0 3.0 21 ------- null}
h -t 0.21001 -s 0 -d 1 -p cbr -e 1000 -c 1 -i 21 -a 1 -x {0.0 3.0 -1 ------- null}
r -t 0.21601 -s 1 -d 3 -p cbr -e 1000 -c 1 -i 18 -a 1 -x {0.0 3.0 18 ------- null}
r -t 0.21801 -s 0 -d 1 -p cbr -e 1000 -c 1 -i 20 -a 1 -x {0.0 3.0 20 ------- null}
+ -t 0.21801 -s 1 -d 3 -p cbr -e 1000 -c 1 -i 20 -a 1 -x {0.0 3.0 20 ------- null}
- -t 0.21801 -s 1 -d 3 -p cbr -e 1000 -c 1 -i 20 -a 1 -x {0.0 3.0 20 ------- null}
h -t 0.21801 -s 1 -d 3 -p cbr -e 1000 -c 1 -i 20 -a 1 -x {0.0 3.0 -1 ------- null}
+ -t 0.22001 -s 0 -d 1 -p cbr -e 1000 -c 1 -i 22 -a 1 -x {0.0 3.0 22 ------- null}
- -t 0.22001 -s 0 -d 1 -p cbr -e 1000 -c 1 -i 22 -a 1 -x {0.0 3.0 22 ------- null}
h -t 0.22001 -s 0 -d 1 -p cbr -e 1000 -c 1 -i 22 -a 1 -x {0.0 3.0 -1 ------- null}
r -t 0.22601 -s 1 -d 3 -p cbr -e 1000 -c 1 -i 19 -a 1 -x {0.0 3.0 19 ------- null}
r -t 0.22801 -s 0 -d 1 -p cbr -e 1000 -c 1 -i 21 -a 1 -x {0.0 3.0 21 ------- null}
+ -t 0.22801 -s 1 -d 3 -p cbr -e 1000 -c 1 -i 21 -a 1 -x {0.0 3.0 21 ------- null}
- -t 0.22801 -s 1 -d 3 -p cbr -e 1000 -c 1 -i 21 -a 1 -x {0.0 3.0 21 ------- null}
h -t 0.22801 -s 1 -d 3 -p cbr -e 1000 -c 1 -i 21 -a 1 -x {0.0 3.0 -1 ------- null}
+ -t 0.23001 -s 0 -d 1 -p cbr -e 1000 -c 1 -i 23 -a 1 -x {0.0 3.0 23 ------- null}
- -t 0.23001 -s 0 -d 1 -p cbr -e 1000 -c 1 -i 23 -a 1 -x {0.0 3.0 23 ------- null}
h -t 0.23001 -s 0 -d 1 -p cbr -e 1000 -c 1 -i 23 -a 1 -x {0.0 3.0 -1 ------- null}
r -t 0.23601 -s 1 -d 3 -p cbr -e 1000 -c 1 -i 20 -a 1 -x {0.0 3.0 20 ------- null}
r -t 0.23801 -s 0 -d 1 -p cbr -e 1000 -c 1 -i 22 -a 1 -x {0.0 3.0 22 ------- null}
+ -t 0.23801 -s 1 -d 3 -p cbr -e 1000 -c 1 -i 22 -a 1 -x {0.0 3.0 22 ------- null}
- -t 0.23801 -s 1 -d 3 -p cbr -e 1000 -c 1 -i 22 -a 1 -x {0.0 3.0 22 ------- null}
h -t 0.23801 -s 1 -d 3 -p cbr -e 1000 -c 1 -i 22 -a 1 -x {0.0 3.0 -1 ------- null}
+ -t 0.24001 -s 0 -d 1 -p cbr -e 1000 -c 1 -i 24 -a 1 -x {0.0 3.0 24 ------- null}
- -t 0.24001 -s 0 -d 1 -p cbr -e 1000 -c 1 -i 24 -a 1 -x {0.0 3.0 24 ------- null}
h -t 0.24001 -s 0 -d 1 -p cbr -e 1000 -c 1 -i 24 -a 1 -x {0.0 3.0 -1 ------- null}
r -t 0.24601 -s 1 -d 3 -p cbr -e 1000 -c 1 -i 21 -a 1 -x {0.0 3.0 21 ------- null}
r -t 0.24801 -s 0 -d 1 -p cbr -e 1000 -c 1 -i 23 -a 1 -x {0.0 3.0 23 ------- null}
+ -t 0.24801 -s 1 -d 3 -p cbr -e 1000 -c 1 -i 23 -a 1 -x {0.0 3.0 23 ------- null}
- -t 0.24801 -s 1 -d 3 -p cbr -e 1000 -c 1 -i 23 -a 1 -x {0.0 3.0 23 ------- null}
h -t 0.24801 -s 1 -d 3 -p cbr -e 1000 -c 1 -i 23 -a 1 -x {0.0 3.0 -1 ------- null}
+ -t 0.25001 -s 0 -d 1 -p cbr -e 1000 -c 1 -i 25 -a 1 -x {0.0 3.0 25 ------- null}
- -t 0.25001 -s 0 -d 1 -p cbr -e 1000 -c 1 -i 25 -a 1 -x {0.0 3.0 25 ------- null}
h -t 0.25001 -s 0 -d 1 -p cbr -e 1000 -c 1 -i 25 -a 1 -x {0.0 3.0 -1 ------- null}
r -t 0.25601 -s 1 -d 3 -p cbr -e 1000 -c 1 -i 22 -a 1 -x {0.0 3.0 22 ------- null}
r -t 0.25801 -s 0 -d 1 -p cbr -e 1000 -c 1 -i 24 -a 1 -x {0.0 3.0 24 ------- null}
+ -t 0.25801 -s 1 -d 3 -p cbr -e 1000 -c 1 -i 24 -a 1 -x {0.0 3.0 24 ------- null}
- -t 0.25801 -s 1 -d 3 -p cbr -e 1000 -c 1 -i 24 -a 1 -x {0.0 3.0 24 ------- null}
h -t 0.25801 -s 1 -d 3 -p cbr -e 1000 -c 1 -i 24 -a 1 -x {0.0 3.0 -1 ------- null}
+ -t 0.26001 -s 0 -d 1 -p cbr -e 1000 -c 1 -i 26 -a 1 -x {0.0 3.0 26 ------- null}
- -t 0.26001 -s 0 -d 1 -p cbr -e 1000 -c 1 -i 26 -a 1 -x {0.0 3.0 26 ------- null}
h -t 0.26001 -s 0 -d 1 -p cbr -e 1000 -c 1 -i 26 -a 1 -x {0.0 3.0 -1 ------- null}
r -t 0.26601 -s 1 -d 3 -p cbr -e 1000 -c 1 -i 23 -a 1 -x {0.0 3.0 23 ------- null}
r -t 0.26801 -s 0 -d 1 -p cbr -e 1000 -c 1 -i 25 -a 1 -x {0.0 3.0 25 ------- null}
+ -t 0.26801 -s 1 -d 3 -p cbr -e 1000 -c 1 -i 25 -a 1 -x {0.0 3.0 25 ------- null}
- -t 0.26801 -s 1 -d 3 -p cbr -e 1000 -c 1 -i 25 -a 1 -x {0.0 3.0 25 ------- null}
h -t 0.26801 -s 1 -d 3 -p cbr -e 1000 -c 1 -i 25 -a 1 -x {0.0 3.0 -1 ------- null}
+ -t 0.27001 -s 0 -d 1 -p cbr -e 1000 -c 1 -i 27 -a 1 -x {0.0 3.0 27 ------- null}
- -t 0.27001 -s 0 -d 1 -p cbr -e 1000 -c 1 -i 27 -a 1 -x {0.0 3.0 27 ------- null}
h -t 0.27001 -s 0 -d 1 -p cbr -e 1000 -c 1 -i 27 -a 1 -x {0.0 3.0 -1 ------- null}
r -t 0.27601 -s 1 -d 3 -p cbr -e 1000 -c 1 -i 24 -a 1 -x {0.0 3.0 24 ------- null}
r -t 0.27801 -s 0 -d 1 -p cbr -e 1000 -c 1 -i 26 -a 1 -x {0.0 3.0 26 ------- null}
+ -t 0.27801 -s 1 -d 3 -p cbr -e 1000 -c 1 -i 26 -a 1 -x {0.0 3.0 26 ------- null}
- -t 0.27801 -s 1 -d 3 -p cbr -e 1000 -c 1 -i 26 -a 1 -x {0.0 3.0 26 ------- null}
h -t 0.27801 -s 1 -d 3 -p cbr -e 1000 -c 1 -i 26 -a 1 -x {0.0 3.0 -1 ------- null}
+ -t 0.28001 -s 0 -d 1 -p cbr -e 1000 -c 1 -i 28 -a 1 -x {0.0 3.0 28 ------- null}
- -t 0.28001 -s 0 -d 1 -p cbr -e 1000 -c 1 -i 28 -a 1 -x {0.0 3.0 28 ------- null}
h -t 0.28001 -s 0 -d 1 -p cbr -e 1000 -c 1 -i 28 -a 1 -x {0.0 3.0 -1 ------- null}
r -t 0.28601 -s 1 -d 3 -p cbr -e 1000 -c 1 -i 25 -a 1 -x {0.0 3.0 25 ------- null}
r -t 0.28801 -s 0 -d 1 -p cbr -e 1000 -c 1 -i 27 -a 1 -x {0.0 3.0 27 ------- null}
+ -t 0.28801 -s 1 -d 3 -p cbr -e 1000 -c 1 -i 27 -a 1 -x {0.0 3.0 27 ------- null}
- -t 0.28801 -s 1 -d 3 -p cbr -e 1000 -c 1 -i 27 -a 1 -x {0.0 3.0 27 ------- null}
h -t 0.28801 -s 1 -d 3 -p cbr -e 1000 -c 1 -i 27 -a 1 -x {0.0 3.0 -1 ------- null}
+ -t 0.29001 -s 0 -d 1 -p cbr -e 1000 -c 1 -i 29 -a 1 -x {0.0 3.0 29 ------- null}
- -t 0.29001 -s 0 -d 1 -p cbr -e 1000 -c 1 -i 29 -a 1 -x {0.0 3.0 29 ------- null}
h -t 0.29001 -s 0 -d 1 -p cbr -e 1000 -c 1 -i 29 -a 1 -x {0.0 3.0 -1 ------- null}
r -t 0.29601 -s 1 -d 3 -p cbr -e 1000 -c 1 -i 26 -a 1 -x {0.0 3.0 26 ------- null}
r -t 0.29801 -s 0 -d 1 -p cbr -e 1000 -c 1 -i 28 -a 1 -x {0.0 3.0 28 ------- null}
+ -t 0.29801 -s 1 -d 3 -p cbr -e 1000 -c 1 -i 28 -a 1 -x {0.0 3.0 28 ------- null}
- -t 0.29801 -s 1 -d 3 -p cbr -e 1000 -c 1 -i 28 -a 1 -x {0.0 3.0 28 ------- null}
h -t 0.29801 -s 1 -d 3 -p cbr -e 1000 -c 1 -i 28 -a 1 -x {0.0 3.0 -1 ------- null}
+ -t 0.3 -s 1 -d 0 -p tcp -e 40 -c 0 -i 30 -a 0 -x {1.0 4.0 0 ------- null}
- -t 0.3 -s 1 -d 0 -p tcp -e 40 -c 0 -i 30 -a 0 -x {1.0 4.0 0 ------- null}
h -t 0.3 -s 1 -d 0 -p tcp -e 40 -c 0 -i 30 -a 0 -x {1.0 4.0 -1 ------- null}
+ -t 0.30001 -s 0 -d 1 -p cbr -e 1000 -c 1 -i 31 -a 1 -x {0.0 3.0 30 ------- null}
- -t 0.30001 -s 0 -d 1 -p cbr -e 1000 -c 1 -i 31 -a 1 -x {0.0 3.0 30 ------- null}
h -t 0.30001 -s 0 -d 1 -p cbr -e 1000 -c 1 -i 31 -a 1 -x {0.0 3.0 -1 ------- null}
r -t 0.30601 -s 1 -d 3 -p cbr -e 1000 -c 1 -i 27 -a 1 -x {0.0 3.0 27 ------- null}
r -t 0.30801 -s 0 -d 1 -p cbr -e 1000 -c 1 -i 29 -a 1 -x {0.0 3.0 29 ------- null}
+ -t 0.30801 -s 1 -d 3 -p cbr -e 1000 -c 1 -i 29 -a 1 -x {0.0 3.0 29 ------- null}
- -t 0.30801 -s 1 -d 3 -p cbr -e 1000 -c 1 -i 29 -a 1 -x {0.0 3.0 29 ------- null}
h -t 0.30801 -s 1 -d 3 -p cbr -e 1000 -c 1 -i 29 -a 1 -x {0.0 3.0 -1 ------- null}
+ -t 0.31001 -s 0 -d 1 -p cbr -e 1000 -c 1 -i 32 -a 1 -x {0.0 3.0 31 ------- null}
- -t 0.31001 -s 0 -d 1 -p cbr -e 1000 -c 1 -i 32 -a 1 -x {0.0 3.0 31 ------- null}
h -t 0.31001 -s 0 -d 1 -p cbr -e 1000 -c 1 -i 32 -a 1 -x {0.0 3.0 -1 ------- null}
r -t 0.31032 -s 1 -d 0 -p tcp -e 40 -c 0 -i 30 -a 0 -x {1.0 4.0 0 ------- null}
+ -t 0.31032 -s 0 -d 2 -p tcp -e 40 -c 0 -i 30 -a 0 -x {1.0 4.0 0 ------- null}
- -t 0.31032 -s 0 -d 2 -p tcp -e 40 -c 0 -i 30 -a 0 -x {1.0 4.0 0 ------- null}
h -t 0.31032 -s 0 -d 2 -p tcp -e 40 -c 0 -i 30 -a 0 -x {1.0 4.0 -1 ------- null}
r -t 0.31601 -s 1 -d 3 -p cbr -e 1000 -c 1 -i 28 -a 1 -x {0.0 3.0 28 ------- null}
r -t 0.31801 -s 0 -d 1 -p cbr -e 1000 -c 1 -i 31 -a 1 -x {0.0 3.0 30 ------- null}
+ -t 0.31801 -s 1 -d 3 -p cbr -e 1000 -c 1 -i 31 -a 1 -x {0.0 3.0 30 ------- null}
- -t 0.31801 -s 1 -d 3 -p cbr -e 1000 -c 1 -i 31 -a 1 -x {0.0 3.0 30 ------- null}
h -t 0.31801 -s 1 -d 3 -p cbr -e 1000 -c 1 -i 31 -a 1 -x {0.0 3.0 -1 ------- null}
+ -t 0.32001 -s 0 -d 1 -p cbr -e 1000 -c 1 -i 33 -a 1 -x {0.0 3.0 32 ------- null}
- -t 0.32001 -s 0 -d 1 -p cbr -e 1000 -c 1 -i 33 -a 1 -x {0.0 3.0 32 ------- null}
h -t 0.32001 -s 0 -d 1 -p cbr -e 1000 -c 1 -i 33 -a 1 -x {0.0 3.0 -1 ------- null}
r -t 0.32601 -s 1 -d 3 -p cbr -e 1000 -c 1 -i 29 -a 1 -x {0.0 3.0 29 ------- null}
r -t 0.32801 -s 0 -d 1 -p cbr -e 1000 -c 1 -i 32 -a 1 -x {0.0 3.0 31 ------- null}
+ -t 0.32801 -s 1 -d 3 -p cbr -e 1000 -c 1 -i 32 -a 1 -x {0.0 3.0 31 ------- null}
- -t 0.32801 -s 1 -d 3 -p cbr -e 1000 -c 1 -i 32 -a 1 -x {0.0 3.0 31 ------- null}
h -t 0.32801 -s 1 -d 3 -p cbr -e 1000 -c 1 -i 32 -a 1 -x {0.0 3.0 -1 ------- null}
+ -t 0.33001 -s 0 -d 1 -p cbr -e 1000 -c 1 -i 34 -a 1 -x {0.0 3.0 33 ------- null}
- -t 0.33001 -s 0 -d 1 -p cbr -e 1000 -c 1 -i 34 -a 1 -x {0.0 3.0 33 ------- null}
h -t 0.33001 -s 0 -d 1 -p cbr -e 1000 -c 1 -i 34 -a 1 -x {0.0 3.0 -1 ------- null}
r -t 0.33064 -s 0 -d 2 -p tcp -e 40 -c 0 -i 30 -a 0 -x {1.0 4.0 0 ------- null}
+ -t 0.33064 -s 2 -d 4 -p tcp -e 40 -c 0 -i 30 -a 0 -x {1.0 4.0 0 ------- null}
- -t 0.33064 -s 2 -d 4 -p tcp -e 40 -c 0 -i 30 -a 0 -x {1.0 4.0 0 ------- null}
h -t 0.33064 -s 2 -d 4 -p tcp -e 40 -c 0 -i 30 -a 0 -x {1.0 4.0 -1 ------- null}
r -t 0.33601 -s 1 -d 3 -p cbr -e 1000 -c 1 -i 31 -a 1 -x {0.0 3.0 30 ------- null}
r -t 0.33801 -s 0 -d 1 -p cbr -e 1000 -c 1 -i 33 -a 1 -x {0.0 3.0 32 ------- null}
+ -t 0.33801 -s 1 -d 3 -p cbr -e 1000 -c 1 -i 33 -a 1 -x {0.0 3.0 32 ------- null}
- -t 0.33801 -s 1 -d 3 -p cbr -e 1000 -c 1 -i 33 -a 1 -x {0.0 3.0 32 ------- null}
h -t 0.33801 -s 1 -d 3 -p cbr -e 1000 -c 1 -i 33 -a 1 -x {0.0 3.0 -1 ------- null}
+ -t 0.34001 -s 0 -d 1 -p cbr -e 1000 -c 1 -i 35 -a 1 -x {0.0 3.0 34 ------- null}
- -t 0.34001 -s 0 -d 1 -p cbr -e 1000 -c 1 -i 35 -a 1 -x {0.0 3.0 34 ------- null}
h -t 0.34001 -s 0 -d 1 -p cbr -e 1000 -c 1 -i 35 -a 1 -x {0.0 3.0 -1 ------- null}
r -t 0.34596 -s 2 -d 4 -p tcp -e 40 -c 0 -i 30 -a 0 -x {1.0 4.0 0 ------- null}
+ -t 0.34596 -s 4 -d 2 -p ack -e 40 -c 0 -i 36 -a 0 -x {4.0 1.0 0 ------- null}
- -t 0.34596 -s 4 -d 2 -p ack -e 40 -c 0 -i 36 -a 0 -x {4.0 1.0 0 ------- null}
h -t 0.34596 -s 4 -d 2 -p ack -e 40 -c 0 -i 36 -a 0 -x {4.0 1.0 -1 ------- null}
r -t 0.34601 -s 1 -d 3 -p cbr -e 1000 -c 1 -i 32 -a 1 -x {0.0 3.0 31 ------- null}
r -t 0.34801 -s 0 -d 1 -p cbr -e 1000 -c 1 -i 34 -a 1 -x {0.0 3.0 33 ------- null}
+ -t 0.34801 -s 1 -d 3 -p cbr -e 1000 -c 1 -i 34 -a 1 -x {0.0 3.0 33 ------- null}
- -t 0.34801 -s 1 -d 3 -p cbr -e 1000 -c 1 -i 34 -a 1 -x {0.0 3.0 33 ------- null}
h -t 0.34801 -s 1 -d 3 -p cbr -e 1000 -c 1 -i 34 -a 1 -x {0.0 3.0 -1 ------- null}
+ -t 0.35001 -s 0 -d 1 -p cbr -e 1000 -c 1 -i 37 -a 1 -x {0.0 3.0 35 ------- null}
- -t 0.35001 -s 0 -d 1 -p cbr -e 1000 -c 1 -i 37 -a 1 -x {0.0 3.0 35 ------- null}
h -t 0.35001 -s 0 -d 1 -p cbr -e 1000 -c 1 -i 37 -a 1 -x {0.0 3.0 -1 ------- null}
r -t 0.35601 -s 1 -d 3 -p cbr -e 1000 -c 1 -i 33 -a 1 -x {0.0 3.0 32 ------- null}
r -t 0.35801 -s 0 -d 1 -p cbr -e 1000 -c 1 -i 35 -a 1 -x {0.0 3.0 34 ------- null}
+ -t 0.35801 -s 1 -d 3 -p cbr -e 1000 -c 1 -i 35 -a 1 -x {0.0 3.0 34 ------- null}
- -t 0.35801 -s 1 -d 3 -p cbr -e 1000 -c 1 -i 35 -a 1 -x {0.0 3.0 34 ------- null}
h -t 0.35801 -s 1 -d 3 -p cbr -e 1000 -c 1 -i 35 -a 1 -x {0.0 3.0 -1 ------- null}
+ -t 0.36001 -s 0 -d 1 -p cbr -e 1000 -c 1 -i 38 -a 1 -x {0.0 3.0 36 ------- null}
- -t 0.36001 -s 0 -d 1 -p cbr -e 1000 -c 1 -i 38 -a 1 -x {0.0 3.0 36 ------- null}
h -t 0.36001 -s 0 -d 1 -p cbr -e 1000 -c 1 -i 38 -a 1 -x {0.0 3.0 -1 ------- null}
r -t 0.36128 -s 4 -d 2 -p ack -e 40 -c 0 -i 36 -a 0 -x {4.0 1.0 0 ------- null}
+ -t 0.36128 -s 2 -d 0 -p ack -e 40 -c 0 -i 36 -a 0 -x {4.0 1.0 0 ------- null}
- -t 0.36128 -s 2 -d 0 -p ack -e 40 -c 0 -i 36 -a 0 -x {4.0 1.0 0 ------- null}
h -t 0.36128 -s 2 -d 0 -p ack -e 40 -c 0 -i 36 -a 0 -x {4.0 1.0 -1 ------- null}
r -t 0.36601 -s 1 -d 3 -p cbr -e 1000 -c 1 -i 34 -a 1 -x {0.0 3.0 33 ------- null}
r -t 0.36801 -s 0 -d 1 -p cbr -e 1000 -c 1 -i 37 -a 1 -x {0.0 3.0 35 ------- null}
+ -t 0.36801 -s 1 -d 3 -p cbr -e 1000 -c 1 -i 37 -a 1 -x {0.0 3.0 35 ------- null}
- -t 0.36801 -s 1 -d 3 -p cbr -e 1000 -c 1 -i 37 -a 1 -x {0.0 3.0 35 ------- null}
h -t 0.36801 -s 1 -d 3 -p cbr -e 1000 -c 1 -i 37 -a 1 -x {0.0 3.0 -1 ------- null}
+ -t 0.37001 -s 0 -d 1 -p cbr -e 1000 -c 1 -i 39 -a 1 -x {0.0 3.0 37 ------- null}
- -t 0.37001 -s 0 -d 1 -p cbr -e 1000 -c 1 -i 39 -a 1 -x {0.0 3.0 37 ------- null}
h -t 0.37001 -s 0 -d 1 -p cbr -e 1000 -c 1 -i 39 -a 1 -x {0.0 3.0 -1 ------- null}
r -t 0.37601 -s 1 -d 3 -p cbr -e 1000 -c 1 -i 35 -a 1 -x {0.0 3.0 34 ------- null}
r -t 0.37801 -s 0 -d 1 -p cbr -e 1000 -c 1 -i 38 -a 1 -x {0.0 3.0 36 ------- null}
+ -t 0.37801 -s 1 -d 3 -p cbr -e 1000 -c 1 -i 38 -a 1 -x {0.0 3.0 36 ------- null}
- -t 0.37801 -s 1 -d 3 -p cbr -e 1000 -c 1 -i 38 -a 1 -x {0.0 3.0 36 ------- null}
h -t 0.37801 -s 1 -d 3 -p cbr -e 1000 -c 1 -i 38 -a 1 -x {0.0 3.0 -1 ------- null}
+ -t 0.38001 -s 0 -d 1 -p cbr -e 1000 -c 1 -i 40 -a 1 -x {0.0 3.0 38 ------- null}
- -t 0.38001 -s 0 -d 1 -p cbr -e 1000 -c 1 -i 40 -a 1 -x {0.0 3.0 38 ------- null}
h -t 0.38001 -s 0 -d 1 -p cbr -e 1000 -c 1 -i 40 -a 1 -x {0.0 3.0 -1 ------- null}
r -t 0.3816 -s 2 -d 0 -p ack -e 40 -c 0 -i 36 -a 0 -x {4.0 1.0 0 ------- null}
+ -t 0.3816 -s 0 -d 1 -p ack -e 40 -c 0 -i 36 -a 0 -x {4.0 1.0 0 ------- null}
r -t 0.38601 -s 1 -d 3 -p cbr -e 1000 -c 1 -i 37 -a 1 -x {0.0 3.0 35 ------- null}
r -t 0.38801 -s 0 -d 1 -p cbr -e 1000 -c 1 -i 39 -a 1 -x {0.0 3.0 37 ------- null}
+ -t 0.38801 -s 1 -d 3 -p cbr -e 1000 -c 1 -i 39 -a 1 -x {0.0 3.0 37 ------- null}
- -t 0.38801 -s 1 -d 3 -p cbr -e 1000 -c 1 -i 39 -a 1 -x {0.0 3.0 37 ------- null}
h -t 0.38801 -s 1 -d 3 -p cbr -e 1000 -c 1 -i 39 -a 1 -x {0.0 3.0 -1 ------- null}
- -t 0.38801 -s 0 -d 1 -p ack -e 40 -c 0 -i 36 -a 0 -x {4.0 1.0 0 ------- null}
h -t 0.38801 -s 0 -d 1 -p ack -e 40 -c 0 -i 36 -a 0 -x {4.0 1.0 -1 ------- null}
+ -t 0.39001 -s 0 -d 1 -p cbr -e 1000 -c 1 -i 41 -a 1 -x {0.0 3.0 39 ------- null}
- -t 0.39001 -s 0 -d 1 -p cbr -e 1000 -c 1 -i 41 -a 1 -x {0.0 3.0 39 ------- null}
h -t 0.39001 -s 0 -d 1 -p cbr -e 1000 -c 1 -i 41 -a 1 -x {0.0 3.0 -1 ------- null}
r -t 0.39601 -s 1 -d 3 -p cbr -e 1000 -c 1 -i 38 -a 1 -x {0.0 3.0 36 ------- null}
r -t 0.39801 -s 0 -d 1 -p cbr -e 1000 -c 1 -i 40 -a 1 -x {0.0 3.0 38 ------- null}
+ -t 0.39801 -s 1 -d 3 -p cbr -e 1000 -c 1 -i 40 -a 1 -x {0.0 3.0 38 ------- null}
- -t 0.39801 -s 1 -d 3 -p cbr -e 1000 -c 1 -i 40 -a 1 -x {0.0 3.0 38 ------- null}
h -t 0.39801 -s 1 -d 3 -p cbr -e 1000 -c 1 -i 40 -a 1 -x {0.0 3.0 -1 ------- null}
r -t 0.39833 -s 0 -d 1 -p ack -e 40 -c 0 -i 36 -a 0 -x {4.0 1.0 0 ------- null}
+ -t 0.39833 -s 1 -d 0 -p tcp -e 1040 -c 0 -i 42 -a 0 -x {1.0 4.0 1 ------- null}
- -t 0.39833 -s 1 -d 0 -p tcp -e 1040 -c 0 -i 42 -a 0 -x {1.0 4.0 1 ------- null}
h -t 0.39833 -s 1 -d 0 -p tcp -e 1040 -c 0 -i 42 -a 0 -x {1.0 4.0 -1 ------- null}
+ -t 0.39833 -s 1 -d 0 -p tcp -e 1040 -c 0 -i 43 -a 0 -x {1.0 4.0 2 ------- null}
+ -t 0.40001 -s 0 -d 1 -p cbr -e 1000 -c 1 -i 44 -a 1 -x {0.0 3.0 40 ------- null}
- -t 0.40001 -s 0 -d 1 -p cbr -e 1000 -c 1 -i 44 -a 1 -x {0.0 3.0 40 ------- null}
h -t 0.40001 -s 0 -d 1 -p cbr -e 1000 -c 1 -i 44 -a 1 -x {0.0 3.0 -1 ------- null}
r -t 0.40601 -s 1 -d 3 -p cbr -e 1000 -c 1 -i 39 -a 1 -x {0.0 3.0 37 ------- null}
- -t 0.40665 -s 1 -d 0 -p tcp -e 1040 -c 0 -i 43 -a 0 -x {1.0 4.0 2 ------- null}
h -t 0.40665 -s 1 -d 0 -p tcp -e 1040 -c 0 -i 43 -a 0 -x {1.0 4.0 -1 ------- null}
r -t 0.40801 -s 0 -d 1 -p cbr -e 1000 -c 1 -i 41 -a 1 -x {0.0 3.0 39 ------- null}
+ -t 0.40801 -s 1 -d 3 -p cbr -e 1000 -c 1 -i 41 -a 1 -x {0.0 3.0 39 ------- null}
- -t 0.40801 -s 1 -d 3 -p cbr -e 1000 -c 1 -i 41 -a 1 -x {0.0 3.0 39 ------- null}
h -t 0.40801 -s 1 -d 3 -p cbr -e 1000 -c 1 -i 41 -a 1 -x {0.0 3.0 -1 ------- null}
+ -t 0.41001 -s 0 -d 1 -p cbr -e 1000 -c 1 -i 45 -a 1 -x {0.0 3.0 41 ------- null}
- -t 0.41001 -s 0 -d 1 -p cbr -e 1000 -c 1 -i 45 -a 1 -x {0.0 3.0 41 ------- null}
h -t 0.41001 -s 0 -d 1 -p cbr -e 1000 -c 1 -i 45 -a 1 -x {0.0 3.0 -1 ------- null}
r -t 0.41601 -s 1 -d 3 -p cbr -e 1000 -c 1 -i 40 -a 1 -x {0.0 3.0 38 ------- null}