+ 1e-05 0 1 cbr 1000 ------- 1 0.0 3.0 0 0
- 1e-05 0 1 cbr 1000 ------- 1 0.0 3.0 0 0
+ 0.01001 0 1 cbr 1000 ------- 1 0.0 3.0 1 1
- 0.01001 0 1 cbr 1000 ------- 1 0.0 3.0 1 1
r 0.01801 0 1 cbr 1000 ------- 1 0.0 3.0 0 0
+ 0.01801 1 3 cbr 1000 ------- 1 0.0 3.0 0 0
- 0.01801 1 3 cbr 1000 ------- 1 0.0 3.0 0 0
+ 0.02001 0 1 cbr 1000 ------- 1 0.0 3.0 2 2
- 0.02001 0 1 cbr 1000 ------- 1 0.0 3.0 2 2
r 0.02801 0 1 cbr 1000 ------- 1 0.0 3.0 1 1
+ 0.02801 1 3 cbr 1000 ------- 1 0.0 3.0 1 1
- 0.02801 1 3 cbr 1000 ------- 1 0.0 3.0 1 1
+ 0.03001 0 1 cbr 1000 ------- 1 0.0 3.0 3 3
- 0.03001 0 1 cbr 1000 ------- 1 0.0 3.0 3 3
r 0.03601 1 3 cbr 1000 ------- 1 0.0 3.0 0 0
r 0.03801 0 1 cbr 1000 ------- 1 0.0 3.0 2 2
+ 0.03801 1 3 cbr 1000 ------- 1 0.0 3.0 2 2
- 0.03801 1 3 cbr 1000 ------- 1 0.0 3.0 2 2
+ 0.04001 0 1 cbr 1000 ------- 1 0.0 3.0 4 4
- 0.04001 0 1 cbr 1000 ------- 1 0.0 3.0 4 4
r 0.04601 1 3 cbr 1000 ------- 1 0.0 3.0 1 1
r 0.04801 0 1 cbr 1000 ------- 1 0.0 3.0 3 3
+ 0.04801 1 3 cbr 1000 ------- 1 0.0 3.0 3 3
- 0.04801 1 3 cbr 1000 ------- 1 0.0 3.0 3 3
+ 0.05001 0 1 cbr 1000 ------- 1 0.0 3.0 5 5
- 0.05001 0 1 cbr 1000 ------- 1 0.0 3.0 5 5
r 0.05601 1 3 cbr 1000 ------- 1 0.0 3.0 2 2
r 0.05801 0 1 cbr 1000 ------- 1 0.0 3.0 4 4
+ 0.05801 1 3 cbr 1000 ------- 1 0.0 3.0 4 4
- 0.05801 1 3 cbr 1000 ------- 1 0.0 3.0 4 4
+ 0.06001 0 1 cbr 1000 ------- 1 0.0 3.0 6 6
- 0.06001 0 1 cbr 1000 ------- 1 0.0 3.0 6 6
r 0.06601 1 3 cbr 1000 ------- 1 0.0 3.0 3 3
r 0.06801 0 1 cbr 1000 ------- 1 0.0 3.0 5 5
+ 0.06801 1 3 cbr 1000 ------- 1 0.0 3.0 5 5
- 0.06801 1 3 cbr 1000 ------- 1 0.0 3.0 5 5
+ 0.07001 0 1 cbr 1000 ------- 1 0.0 3.0 7 7
- 0.07001 0 1 cbr 1000 ------- 1 0.0 3.0 7 7
r 0.07601 1 3 cbr 1000 ------- 1 0.0 3.0 4 4
r 0.07801 0 1 cbr 1000 ------- 1 0.0 3.0 6 6
+ 0.07801 1 3 cbr 1000 ------- 1 0.0 3.0 6 6
- 0.07801 1 3 cbr 1000 ------- 1 0.0 3.0 6 6
+ 0.08001 0 1 cbr 1000 ------- 1 0.0 3.0 8 8
- 0.08001 0 1 cbr 1000 ------- 1 0.0 3.0 8 8
r 0.08601 1 3 cbr 1000 ------- 1 0.0 3.0 5 5
r 0.08801 0 1 cbr 1000 ------- 1 0.0 3.0 7 7
+ 0.08801 1 3 cbr 1000 ------- 1 0.0 3.0 7 7
- 0.08801 1 3 cbr 1000 ------- 1 0.0 3.0 7 7
+ 0.09001 0 1 cbr 1000 ------- 1 0.0 3.0 9 9
- 0.09001 0 1 cbr 1000 ------- 1 0.0 3.0 9 9
r 0.09601 1 3 cbr 1000 ------- 1 0.0 3.0 6 6
r 0.09801 0 1 cbr 1000 ------- 1 0.0 3.0 8 8
+ 0.09801 1 3 cbr 1000 ------- 1 0.0 3.0 8 8
- 0.09801 1 3 cbr 1000 ------- 1 0.0 3.0 8 8
+ 0.10001 0 1 cbr 1000 ------- 1 0.0 3.0 10 10
- 0.10001 0 1 cbr 1000 ------- 1 0.0 3.0 10 10
r 0.10601 1 3 cbr 1000 ------- 1 0.0 3.0 7 7
r 0.10801 0 1 cbr 1000 ------- 1 0.0 3.0 9 9
+ 0.10801 1 3 cbr 1000 ------- 1 0.0 3.0 9 9
- 0.10801 1 3 cbr 1000 ------- 1 0.0 3.0 9 9
+ 0.11001 0 1 cbr 1000 ------- 1 0.0 3.0 11 11
- 0.11001 0 1 cbr 1000 ------- 1 0.0 3.0 11 11
r 0.11601 1 3 cbr 1000 ------- 1 0.0 3.0 8 8
r 0.11801 0 1 cbr 1000 ------- 1 0.0 3.0 10 10
+ 0.11801 1 3 cbr 1000 ------- 1 0.0 3.0 10 10
- 0.11801 1 3 cbr 1000 ------- 1 0.0 3.0 10 10
+ 0.12001 0 1 cbr 1000 ------- 1 0.0 3.0 12 12
- 0.12001 0 1 cbr 1000 ------- 1 0.0 3.0 12 12
r 0.12601 1 3 cbr 1000 ------- 1 0.0 3.0 9 9
r 0.12801 0 1 cbr 1000 ------- 1 0.0 3.0 11 11
+ 0.12801 1 3 cbr 1000 ------- 1 0.0 3.0 11 11
- 0.12801 1 3 cbr 1000 ------- 1 0.0 3.0 11 11
+ 0.13001 0 1 cbr 1000 ------- 1 0.0 3.0 13 13
- 0.13001 0 1 cbr 1000 ------- 1 0.0 3.0 13 13
r 0.13601 1 3 cbr 1000 ------- 1 0.0 3.0 10 10
r 0.13801 0 1 cbr 1000 ------- 1 0.0 3.0 12 12
+ 0.13801 1 3 cbr 1000 ------- 1 0.0 3.0 12 12
- 0.13801 1 3 cbr 1000 ------- 1 0.0 3.0 12 12
+ 0.14001 0 1 cbr 1000 ------- 1 0.0 3.0 14 14
- 0.14001 0 1 cbr 1000 ------- 1 0.0 3.0 14 14
r 0.14601 1 3 cbr 1000 ------- 1 0.0 3.0 11 11
r 0.14801 0 1 cbr 1000 ------- 1 0.0 3.0 13 13
+ 0.14801 1 3 cbr 1000 ------- 1 0.0 3.0 13 13
- 0.14801 1 3 cbr 1000 ------- 1 0.0 3.0 13 13
+ 0.15001 0 1 cbr 1000 ------- 1 0.0 3.0 15 15
- 0.15001 0 1 cbr 1000 ------- 1 0.0 3.0 15 15
r 0.15601 1 3 cbr 1000 ------- 1 0.0 3.0 12 12
r 0.15801 0 1 cbr 1000 ------- 1 0.0 3.0 14 14
+ 0.15801 1 3 cbr 1000 ------- 1 0.0 3.0 14 14
- 0.15801 1 3 cbr 1000 ------- 1 0.0 3.0 14 14
+ 0.16001 0 1 cbr 1000 ------- 1 0.0 3.0 16 16
- 0.16001 0 1 cbr 1000 ------- 1 0.0 3.0 16 16
r 0.16601 1 3 cbr 1000 ------- 1 0.0 3.0 13 13
r 0.16801 0 1 cbr 1000 ------- 1 0.0 3.0 15 15
+ 0.16801 1 3 cbr 1000 ------- 1 0.0 3.0 15 15
- 0.16801 1 3 cbr 1000 ------- 1 0.0 3.0 15 15
+ 0.17001 0 1 cbr 1000 ------- 1 0.0 3.0 17 17
- 0.17001 0 1 cbr 1000 ------- 1 0.0 3.0 17 17
r 0.17601 1 3 cbr 1000 ------- 1 0.0 3.0 14 14
r 0.17801 0 1 cbr 1000 ------- 1 0.0 3.0 16 16
+ 0.17801 1 3 cbr 1000 ------- 1 0.0 3.0 16 16
- 0.17801 1 3 cbr 1000 ------- 1 0.0 3.0 16 16
+ 0.18001 0 1 cbr 1000 ------- 1 0.0 3.0 18 18
- 0.18001 0 1 cbr 1000 ------- 1 0.0 3.0 18 18
r 0.18601 1 3 cbr 1000 ------- 1 0.0 3.0 15 15
r 0.18801 0 1 cbr 1000 ------- 1 0.0 3.0 17 17
+ 0.18801 1 3 cbr 1000 ------- 1 0.0 3.0 17 17
- 0.18801 1 3 cbr 1000 ------- 1 0.0 3.0 17 17
+ 0.19001 0 1 cbr 1000 ------- 1 0.0 3.0 19 19
- 0.19001 0 1 cbr 1000 ------- 1 0.0 3.0 19 19
r 0.19601 1 3 cbr 1000 ------- 1 0.0 3.0 16 16
r 0.19801 0 1 cbr 1000 ------- 1 0.0 3.0 18 18
+ 0.19801 1 3 cbr 1000 ------- 1 0.0 3.0 18 18
- 0.19801 1 3 cbr 1000 ------- 1 0.0 3.0 18 18
+ 0.20001 0 1 cbr 1000 ------- 1 0.0 3.0 20 20
- 0.20001 0 1 cbr 1000 ------- 1 0.0 3.0 20 20
r 0.20601 1 3 cbr 1000 ------- 1 0.0 3.0 17 17
r 0.20801 0 1 cbr 1000 ------- 1 0.0 3.0 19 19
+ 0.20801 1 3 cbr 1000 ------- 1 0.0 3.0 19 19
- 0.20801 1 3 cbr 1000 ------- 1 0.0 3.0 19 19
+ 0.21001 0 1 cbr 1000 ------- 1 0.0 3.0 21 21
- 0.21001 0 1 cbr 1000 ------- 1 0.0 3.0 21 21
r 0.21601 1 3 cbr 1000 ------- 1 0.0 3.0 18 18
r 0.21801 0 1 cbr 1000 ------- 1 0.0 3.0 20 20
+ 0.21801 1 3 cbr 1000 ------- 1 0.0 3.0 20 20
- 0.21801 1 3 cbr 1000 ------- 1 0.0 3.0 20 20
+ 0.22001 0 1 cbr 1000 ------- 1 0.0 3.0 22 22
- 0.22001 0 1 cbr 1000 ------- 1 0.0 3.0 22 22
r 0.22601 1 3 cbr 1000 ------- 1 0.0 3.0 19 19
r 0.22801 0 1 cbr 1000 ------- 1 0.0 3.0 21 21
+ 0.22801 1 3 cbr 1000 ------- 1 0.0 3.0 21 21
- 0.22801 1 3 cbr 1000 ------- 1 0.0 3.0 21 21
+ 0.23001 0 1 cbr 1000 ------- 1 0.0 3.0 23 23
- 0.23001 0 1 cbr 1000 ------- 1 0.0 3.0 23 23
r 0.23601 1 3 cbr 1000 ------- 1 0.0 3.0 20 20
r 0.23801 0 1 cbr 1000 ------- 1 0.0 3.0 22 22
+ 0.23801 1 3 cbr 1000 ------- 1 0.0 3.0 22 22
- 0.23801 1 3 cbr 1000 ------- 1 0.0 3.0 22 22
+ 0.24001 0 1 cbr 1000 ------- 1 0.0 3.0 24 24
- 0.24001 0 1 cbr 1000 ------- 1 0.0 3.0 24 24
r 0.24601 1 3 cbr 1000 ------- 1 0.0 3.0 21 21
r 0.24801 0 1 cbr 1000 ------- 1 0.0 3.0 23 23
+ 0.24801 1 3 cbr 1000 ------- 1 0.0 3.0 23 23
- 0.24801 1 3 cbr 1000 ------- 1 0.0 3.0 23 23
+ 0.25001 0 1 cbr 1000 ------- 1 0.0 3.0 25 25
- 0.25001 0 1 cbr 1000 ------- 1 0.0 3.0 25 25
r 0.25601 1 3 cbr 1000 ------- 1 0.0 3.0 22 22
r 0.25801 0 1 cbr 1000 ------- 1 0.0 3.0 24 24
+ 0.25801 1 3 cbr 1000 ------- 1 0.0 3.0 24 24
- 0.25801 1 3 cbr 1000 ------- 1 0.0 3.0 24 24
+ 0.26001 0 1 cbr 1000 ------- 1 0.0 3.0 26 26
- 0.26001 0 1 cbr 1000 ------- 1 0.0 3.0 26 26
r 0.26601 1 3 cbr 1000 ------- 1 0.0 3.0 23 23
r 0.26801 0 1 cbr 1000 ------- 1 0.0 3.0 25 25
+ 0.26801 1 3 cbr 1000 ------- 1 0.0 3.0 25 25
- 0.26801 1 3 cbr 1000 ------- 1 0.0 3.0 25 25
+ 0.27001 0 1 cbr 1000 ------- 1 0.0 3.0 27 27
- 0.27001 0 1 cbr 1000 ------- 1 0.0 3.0 27 27
r 0.27601 1 3 cbr 1000 ------- 1 0.0 3.0 24 24
r 0.27801 0 1 cbr 1000 ------- 1 0.0 3.0 26 26
+ 0.27801 1 3 cbr 1000 ------- 1 0.0 3.0 26 26
- 0.27801 1 3 cbr 1000 ------- 1 0.0 3.0 26 26
+ 0.28001 0 1 cbr 1000 ------- 1 0.0 3.0 28 28
- 0.28001 0 1 cbr 1000 ------- 1 0.0 3.0 28 28
r 0.28601 1 3 cbr 1000 ------- 1 0.0 3.0 25 25
r 0.28801 0 1 cbr 1000 ------- 1 0.0 3.0 27 27
+ 0.28801 1 3 cbr 1000 ------- 1 0.0 3.0 27 27
- 0.28801 1 3 cbr 1000 ------- 1 0.0 3.0 27 27
+ 0.29001 0 1 cbr 1000 ------- 1 0.0 3.0 29 29
- 0.29001 0 1 cbr 1000 ------- 1 0.0 3.0 29 29
r 0.29601 1 3 cbr 1000 ------- 1 0.0 3.0 26 26
r 0.29801 0 1 cbr 1000 ------- 1 0.0 3.0 28 28
+ 0.29801 1 3 cbr 1000 ------- 1 0.0 3.0 28 28
- 0.29801 1 3 cbr 1000 ------- 1 0.0 3.0 28 28
+ 0.3 1 0 tcp 40 ------- 0 1.0 4.0 0 30
- 0.3 1 0 tcp 40 ------- 0 1.0 4.0 0 30
+ 0.30001 0 1 cbr 1000 ------- 1 0.0 3.0 30 31
- 0.30001 0 1 cbr 1000 ------- 1 0.0 3.0 30 31
r 0.30601 1 3 cbr 1000 ------- 1 0.0 3.0 27 27
r 0.30801 0 1 cbr 1000 ------- 1 0.0 3.0 29 29
+ 0.30801 1 3 cbr 1000 ------- 1 0.0 3.0 29 29
- 0.30801 1 3 cbr 1000 ------- 1 0.0 3.0 29 29
+ 0.31001 0 1 cbr 1000 ------- 1 0.0 3.0 31 32
- 0.31001 0 1 cbr 1000 ------- 1 0.0 3.0 31 32
r 0.31032 1 0 tcp 40 ------- 0 1.0 4.0 0 30
+ 0.31032 0 2 tcp 40 ------- 0 1.0 4.0 0 30
- 0.31032 0 2 tcp 40 ------- 0 1.0 4.0 0 30
r 0.31601 1 3 cbr 1000 ------- 1 0.0 3.0 28 28
r 0.31801 0 1 cbr 1000 ------- 1 0.0 3.0 30 31
+ 0.31801 1 3 cbr 1000 ------- 1 0.0 3.0 30 31
- 0.31801 1 3 cbr 1000 ------- 1 0.0 3.0 30 31
+ 0.32001 0 1 cbr 1000 ------- 1 0.0 3.0 32 33
- 0.32001 0 1 cbr 1000 ------- 1 0.0 3.0 32 33
r 0.32601 1 3 cbr 1000 ------- 1 0.0 3.0 29 29
r 0.32801 0 1 cbr 1000 ------- 1 0.0 3.0 31 32
+ 0.32801 1 3 cbr 1000 ------- 1 0.0 3.0 31 32
- 0.32801 1 3 cbr 1000 ------- 1 0.0 3.0 31 32
+ 0.33001 0 1 cbr 1000 ------- 1 0.0 3.0 33 34
- 0.33001 0 1 cbr 1000 ------- 1 0.0 3.0 33 34
r 0.33064 0 2 tcp 40 ------- 0 1.0 4.0 0 30
+ 0.33064 2 4 tcp 40 ------- 0 1.0 4.0 0 30
- 0.33064 2 4 tcp 40 ------- 0 1.0 4.0 0 30
r 0.33601 1 3 cbr 1000 ------- 1 0.0 3.0 30 31
r 0.33801 0 1 cbr 1000 ------- 1 0.0 3.0 32 33
+ 0.33801 1 3 cbr 1000 ------- 1 0.0 3.0 32 33
- 0.33801 1 3 cbr 1000 ------- 1 0.0 3.0 32 33
+ 0.34001 0 1 cbr 1000 ------- 1 0.0 3.0 34 35
- 0.34001 0 1 cbr 1000 ------- 1 0.0 3.0 34 35
r 0.34596 2 4 tcp 40 ------- 0 1.0 4.0 0 30
+ 0.34596 4 2 ack 40 ------- 0 4.0 1.0 0 36
- 0.34596 4 2 ack 40 ------- 0 4.0 1.0 0 36
r 0.34601 1 3 cbr 1000 ------- 1 0.0 3.0 31 32
r 0.34801 0 1 cbr 1000 ------- 1 0.0 3.0 33 34
+ 0.34801 1 3 cbr 1000 ------- 1 0.0 3.0 33 34
- 0.34801 1 3 cbr 1000 ------- 1 0.0 3.0 33 34
+ 0.35001 0 1 cbr 1000 ------- 1 0.0 3.0 35 37
- 0.35001 0 1 cbr 1000 ------- 1 0.0 3.0 35 37
r 0.35601 1 3 cbr 1000 ------- 1 0.0 3.0 32 33
r 0.35801 0 1 cbr 1000 ------- 1 0.0 3.0 34 35
+ 0.35801 1 3 cbr 1000 ------- 1 0.0 3.0 34 35
- 0.35801 1 3 cbr 1000 ------- 1 0.0 3.0 34 35
+ 0.36001 0 1 cbr 1000 ------- 1 0.0 3.0 36 38
- 0.36001 0 1 cbr 1000 ------- 1 0.0 3.0 36 38
r 0.36128 4 2 ack 40 ------- 0 4.0 1.0 0 36
+ 0.36128 2 0 ack 40 ------- 0 4.0 1.0 0 36
- 0.36128 2 0 ack 40 ------- 0 4.0 1.0 0 36
r 0.36601 1 3 cbr 1000 ------- 1 0.0 3.0 33 34
r 0.36801 0 1 cbr 1000 ------- 1 0.0 3.0 35 37
+ 0.36801 1 3 cbr 1000 ------- 1 0.0 3.0 35 37
- 0.36801 1 3 cbr 1000 ------- 1 0.0 3.0 35 37
+ 0.37001 0 1 cbr 1000 ------- 1 0.0 3.0 37 39
- 0.37001 0 1 cbr 1000 ------- 1 0.0 3.0 37 39
r 0.37601 1 3 cbr 1000 ------- 1 0.0 3.0 34 35
r 0.37801 0 1 cbr 1000 ------- 1 0.0 3.0 36 38
+ 0.37801 1 3 cbr 1000 ------- 1 0.0 3.0 36 38
- 0.37801 1 3 cbr 1000 ------- 1 0.0 3.0 36 38
+ 0.38001 0 1 cbr 1000 ------- 1 0.0 3.0 38 40
- 0.38001 0 1 cbr 1000 ------- 1 0.0 3.0 38 40
r 0.3816 2 0 ack 40 ------- 0 4.0 1.0 0 36
+ 0.3816 0 1 ack 40 ------- 0 4.0 1.0 0 36
r 0.38601 1 3 cbr 1000 ------- 1 0.0 3.0 35 37
r 0.38801 0 1 cbr 1000 ------- 1 0.0 3.0 37 39
+ 0.38801 1 3 cbr 1000 ------- 1 0.0 3.0 37 39
- 0.38801 1 3 cbr 1000 ------- 1 0.0 3.0 37 39
- 0.38801 0 1 ack 40 ------- 0 4.0 1.0 0 36
+ 0.39001 0 1 cbr 1000 ------- 1 0.0 3.0 39 41
- 0.39001 0 1 cbr 1000 ------- 1 0.0 3.0 39 41
r 0.39601 1 3 cbr 1000 ------- 1 0.0 3.0 36 38
r 0.39801 0 1 cbr 1000 ------- 1 0.0 3.0 38 40
+ 0.39801 1 3 cbr 1000 ------- 1 0.0 3.0 38 40
- 0.39801 1 3 cbr 1000 ------- 1 0.0 3.0 38 40
r 0.39833 0 1 ack 40 ------- 0 4.0 1.0 0 36
+ 0.39833 1 0 tcp 1040 ------- 0 1.0 4.0 1 42
- 0.39833 1 0 tcp 1040 ------- 0 1.0 4.0 1 42
+ 0.39833 1 0 tcp 1040 ------- 0 1.0 4.0 2 43
+ 0.40001 0 1 cbr 1000 ------- 1 0.0 3.0 40 44
- 0.40001 0 1 cbr 1000 ------- 1 0.0 3.0 40 44
r 0.40601 1 3 cbr 1000 ------- 1 0.0 3.0 37 39
- 0.40665 1 0 tcp 1040 ------- 0 1.0 4.0 2 43
r 0.40801 0 1 cbr 1000 ------- 1 0.0 3.0 39 41
+ 0.40801 1 3 cbr 1000 ------- 1 0.0 3.0 39 41
- 0.40801 1 3 cbr 1000 ------- 1 0.0 3.0 39 41
+ 0.41001 0 1 cbr 1000 ------- 1 0.0 3.0 41 45
- 0.41001 0 1 cbr 1000 ------- 1 0.0 3.0 41 45
r 0.41601 1 3 cbr 1000 ------- 1 0.0 3.0 38 40
r 0.41665 1 0 tcp 1040 ------- 0 1.0 4.0 1 42
+ 0.41665 0 2 tcp 1040 ------- 0 1.0 4.0 1 42
- 0.41665 0 2 tcp 1040 ------- 0 1.0 4.0 1 42
r 0.41801 0 1 cbr 1000 ------- 1 0.0 3.0 40 44
+ 0.41801 1 3 cbr 1000 ------- 1 0.0 3.0 40 44
- 0.41801 1 3 cbr 1000 ------- 1 0.0 3.0 40 44
+ 0.42001 0 1 cbr 1000 ------- 1 0.0 3.0 42 46
- 0.42001 0 1 cbr 1000 ------- 1 0.0 3.0 42 46
r 0.42497 1 0 tcp 1040 ------- 0 1.0 4.0 2 43
+ 0.42497 0 2 tcp 1040 ------- 0 1.0 4.0 2 43
- 0.42497 0 2 tcp 1040 ------- 0 1.0 4.0 2 43
r 0.42601 1 3 cbr 1000 ------- 1 0.0 3.0 39 41
r 0.42801 0 1 cbr 1000 ------- 1 0.0 3.0 41 45
+ 0.42801 1 3 cbr 1000 ------- 1 0.0 3.0 41 45
- 0.42801 1 3 cbr 1000 ------- 1 0.0 3.0 41 45
+ 0.43001 0 1 cbr 1000 ------- 1 0.0 3.0 43 47
- 0.43001 0 1 cbr 1000 ------- 1 0.0 3.0 43 47
r 0.43601 1 3 cbr 1000 ------- 1 0.0 3.0 40 44
r 0.43801 0 1 cbr 1000 ------- 1 0.0 3.0 42 46
+ 0.43801 1 3 cbr 1000 ------- 1 0.0 3.0 42 46
- 0.43801 1 3 cbr 1000 ------- 1 0.0 3.0 42 46
+ 0.44001 0 1 cbr 1000 ------- 1 0.0 3.0 44 48
- 0.44001 0 1 cbr 1000 ------- 1 0.0 3.0 44 48
r 0.44497 0 2 tcp 1040 ------- 0 1.0 4.0 1 42
+ 0.44497 2 4 tcp 1040 ------- 0 1.0 4.0 1 42
- 0.44497 2 4 tcp 1040 ------- 0 1.0 4.0 1 42
r 0.44601 1 3 cbr 1000 ------- 1 0.0 3.0 41 45
r 0.44801 0 1 cbr 1000 ------- 1 0.0 3.0 43 47
+ 0.44801 1 3 cbr 1000 ------- 1 0.0 3.0 43 47
- 0.44801 1 3 cbr 1000 ------- 1 0.0 3.0 43 47
+ 0.45001 0 1 cbr 1000 ------- 1 0.0 3.0 45 49
- 0.45001 0 1 cbr 1000 ------- 1 0.0 3.0 45 49
r 0.45329 0 2 tcp 1040 ------- 0 1.0 4.0 2 43
+ 0.45329 2 4 tcp 1040 ------- 0 1.0 4.0 2 43
- 0.45329 2 4 tcp 1040 ------- 0 1.0 4.0 2 43
r 0.45601 1 3 cbr 1000 ------- 1 0.0 3.0 42 46
r 0.45801 0 1 cbr 1000 ------- 1 0.0 3.0 44 48
+ 0.45801 1 3 cbr 1000 ------- 1 0.0 3.0 44 48
- 0.45801 1 3 cbr 1000 ------- 1 0.0 3.0 44 48
+ 0.46001 0 1 cbr 1000 ------- 1 0.0 3.0 46 50
- 0.46001 0 1 cbr 1000 ------- 1 0.0 3.0 46 50
r 0.46601 1 3 cbr 1000 ------- 1 0.0 3.0 43 47
r 0.46801 0 1 cbr 1000 ------- 1 0.0 3.0 45 49
+ 0.46801 1 3 cbr 1000 ------- 1 0.0 3.0 45 49
- 0.46801 1 3 cbr 1000 ------- 1 0.0 3.0 45 49
r 0.46829 2 4 tcp 1040 ------- 0 1.0 4.0 1 42
+ 0.47001 0 1 cbr 1000 ------- 1 0.0 3.0 47 51
- 0.47001 0 1 cbr 1000 ------- 1 0.0 3.0 47 51
r 0.47601 1 3 cbr 1000 ------- 1 0.0 3.0 44 48
r 0.47661 2 4 tcp 1040 ------- 0 1.0 4.0 2 43
+ 0.47661 4 2 ack 40 ------- 0 4.0 1.0 2 52
- 0.47661 4 2 ack 40 ------- 0 4.0 1.0 2 52
r 0.47801 0 1 cbr 1000 ------- 1 0.0 3.0 46 50
+ 0.47801 1 3 cbr 1000 ------- 1 0.0 3.0 46 50
- 0.47801 1 3 cbr 1000 ------- 1 0.0 3.0 46 50
+ 0.48001 0 1 cbr 1000 ------- 1 0.0 3.0 48 53
- 0.48001 0 1 cbr 1000 ------- 1 0.0 3.0 48 53
r 0.48601 1 3 cbr 1000 ------- 1 0.0 3.0 45 49
r 0.48801 0 1 cbr 1000 ------- 1 0.0 3.0 47 51
+ 0.48801 1 3 cbr 1000 ------- 1 0.0 3.0 47 51
- 0.48801 1 3 cbr 1000 ------- 1 0.0 3.0 47 51
+ 0.49001 0 1 cbr 1000 ------- 1 0.0 3.0 49 54
- 0.49001 0 1 cbr 1000 ------- 1 0.0 3.0 49 54
r 0.49193 4 2 ack 40 ------- 0 4.0 1.0 2 52
+ 0.49193 2 0 ack 40 ------- 0 4.0 1.0 2 52
- 0.49193 2 0 ack 40 ------- 0 4.0 1.0 2 52
r 0.49601 1 3 cbr 1000 ------- 1 0.0 3.0 46 50
r 0.49801 0 1 cbr 1000 ------- 1 0.0 3.0 48 53
+ 0.49801 1 3 cbr 1000 ------- 1 0.0 3.0 48 53
- 0.49801 1 3 cbr 1000 ------- 1 0.0 3.0 48 53
+ 0.50001 0 1 cbr 1000 ------- 1 0.0 3.0 50 55
- 0.50001 0 1 cbr 1000 ------- 1 0.0 3.0 50 55
r 0.50601 1 3 cbr 1000 ------- 1 0.0 3.0 47 51
r 0.50801 0 1 cbr 1000 ------- 1 0.0 3.0 49 54
+ 0.50801 1 3 cbr 1000 ------- 1 0.0 3.0 49 54
- 0.50801 1 3 cbr 1000 ------- 1 0.0 3.0 49 54
+ 0.51001 0 1 cbr 1000 ------- 1 0.0 3.0 51 56
- 0.51001 0 1 cbr 1000 ------- 1 0.0 3.0 51 56
r 0.51225 2 0 ack 40 ------- 0 4.0 1.0 2 52
+ 0.51225 0 1 ack 40 ------- 0 4.0 1.0 2 52
r 0.51601 1 3 cbr 1000 ------- 1 0.0 3.0 48 53
r 0.51801 0 1 cbr 1000 ------- 1 0.0 3.0 50 55
+ 0.51801 1 3 cbr 1000 ------- 1 0.0 3.0 50 55
- 0.51801 1 3 cbr 1000 ------- 1 0.0 3.0 50 55
- 0.51801 0 1 ack 40 ------- 0 4.0 1.0 2 52
+ 0.52001 0 1 cbr 1000 ------- 1 0.0 3.0 52 57
- 0.52001 0 1 cbr 1000 ------- 1 0.0 3.0 52 57
r 0.52601 1 3 cbr 1000 ------- 1 0.0 3.0 49 54
r 0.52801 0 1 cbr 1000 ------- 1 0.0 3.0 51 56
+ 0.52801 1 3 cbr 1000 ------- 1 0.0 3.0 51 56
- 0.52801 1 3 cbr 1000 ------- 1 0.0 3.0 51 56
r 0.52833 0 1 ack 40 ------- 0 4.0 1.0 2 52
+ 0.52833 1 0 tcp 1040 ------- 0 1.0 4.0 3 58
- 0.52833 1 0 tcp 1040 ------- 0 1.0 4.0 3 58
+ 0.52833 1 0 tcp 1040 ------- 0 1.0 4.0 4 59
+ 0.52833 1 0 tcp 1040 ------- 0 1.0 4.0 5 60
+ 0.53001 0 1 cbr 1000 ------- 1 0.0 3.0 53 61
- 0.53001 0 1 cbr 1000 ------- 1 0.0 3.0 53 61
r 0.53601 1 3 cbr 1000 ------- 1 0.0 3.0 50 55
- 0.53665 1 0 tcp 1040 ------- 0 1.0 4.0 4 59
r 0.53801 0 1 cbr 1000 ------- 1 0.0 3.0 52 57
+ 0.53801 1 3 cbr 1000 ------- 1 0.0 3.0 52 57
- 0.53801 1 3 cbr 1000 ------- 1 0.0 3.0 52 57
+ 0.54001 0 1 cbr 1000 ------- 1 0.0 3.0 54 62
- 0.54001 0 1 cbr 1000 ------- 1 0.0 3.0 54 62
- 0.54497 1 0 tcp 1040 ------- 0 1.0 4.0 5 60
r 0.54601 1 3 cbr 1000 ------- 1 0.0 3.0 51 56
r 0.54665 1 0 tcp 1040 ------- 0 1.0 4.0 3 58
+ 0.54665 0 2 tcp 1040 ------- 0 1.0 4.0 3 58
- 0.54665 0 2 tcp 1040 ------- 0 1.0 4.0 3 58
r 0.54801 0 1 cbr 1000 ------- 1 0.0 3.0 53 61
+ 0.54801 1 3 cbr 1000 ------- 1 0.0 3.0 53 61
- 0.54801 1 3 cbr 1000 ------- 1 0.0 3.0 53 61
+ 0.55001 0 1 cbr 1000 ------- 1 0.0 3.0 55 63
- 0.55001 0 1 cbr 1000 ------- 1 0.0 3.0 55 63
r 0.55497 1 0 tcp 1040 ------- 0 1.0 4.0 4 59
+ 0.55497 0 2 tcp 1040 ------- 0 1.0 4.0 4 59
- 0.55497 0 2 tcp 1040 ------- 0 1.0 4.0 4 59
r 0.55601 1 3 cbr 1000 ------- 1 0.0 3.0 52 57
r 0.55801 0 1 cbr 1000 ------- 1 0.0 3.0 54 62
+ 0.55801 1 3 cbr 1000 ------- 1 0.0 3.0 54 62
- 0.55801 1 3 cbr 1000 ------- 1 0.0 3.0 54 62
+ 0.56001 0 1 cbr 1000 ------- 1 0.0 3.0 56 64
- 0.56001 0 1 cbr 1000 ------- 1 0.0 3.0 56 64
r 0.56329 1 0 tcp 1040 ------- 0 1.0 4.0 5 60
+ 0.56329 0 2 tcp 1040 ------- 0 1.0 4.0 5 60
- 0.56329 0 2 tcp 1040 ------- 0 1.0 4.0 5 60
r 0.56601 1 3 cbr 1000 ------- 1 0.0 3.0 53 61
r 0.56801 0 1 cbr 1000 ------- 1 0.0 3.0 55 63
+ 0.56801 1 3 cbr 1000 ------- 1 0.0 3.0 55 63
- 0.56801 1 3 cbr 1000 ------- 1 0.0 3.0 55 63
+ 0.57001 0 1 cbr 1000 ------- 1 0.0 3.0 57 65
- 0.57001 0 1 cbr 1000 ------- 1 0.0 3.0 57 65
r 0.57497 0 2 tcp 1040 ------- 0 1.0 4.0 3 58
+ 0.57497 2 4 tcp 1040 ------- 0 1.0 4.0 3 58
- 0.57497 2 4 tcp 1040 ------- 0 1.0 4.0 3 58
r 0.57601 1 3 cbr 1000 ------- 1 0.0 3.0 54 62
r 0.57801 0 1 cbr 1000 ------- 1 0.0 3.0 56 64
+ 0.57801 1 3 cbr 1000 ------- 1 0.0 3.0 56 64
- 0.57801 1 3 cbr 1000 ------- 1 0.0 3.0 56 64
+ 0.58001 0 1 cbr 1000 ------- 1 0.0 3.0 58 66
- 0.58001 0 1 cbr 1000 ------- 1 0.0 3.0 58 66
r 0.58329 0 2 tcp 1040 ------- 0 1.0 4.0 4 59
+ 0.58329 2 4 tcp 1040 ------- 0 1.0 4.0 4 59
- 0.58329 2 4 tcp 1040 ------- 0 1.0 4.0 4 59
r 0.58601 1 3 cbr 1000 ------- 1 0.0 3.0 55 63
r 0.58801 0 1 cbr 1000 ------- 1 0.0 3.0 57 65
+ 0.58801 1 3 cbr 1000 ------- 1 0.0 3.0 57 65
- 0.58801 1 3 cbr 1000 ------- 1 0.0 3.0 57 65
+ 0.59001 0 1 cbr 1000 ------- 1 0.0 3.0 59 67
- 0.59001 0 1 cbr 1000 ------- 1 0.0 3.0 59 67
r 0.59161 0 2 tcp 1040 ------- 0 1.0 4.0 5 60
+ 0.59161 2 4 tcp 1040 ------- 0 1.0 4.0 5 60
- 0.59161 2 4 tcp 1040 ------- 0 1.0 4.0 5 60
r 0.59601 1 3 cbr 1000 ------- 1 0.0 3.0 56 64
r 0.59801 0 1 cbr 1000 ------- 1 0.0 3.0 58 66
+ 0.59801 1 3 cbr 1000 ------- 1 0.0 3.0 58 66
- 0.59801 1 3 cbr 1000 ------- 1 0.0 3.0 58 66
r 0.59829 2 4 tcp 1040 ------- 0 1.0 4.0 3 58
+ 0.60001 0 1 cbr 1000 ------- 1 0.0 3.0 60 68
- 0.60001 0 1 cbr 1000 ------- 1 0.0 3.0 60 68
r 0.60601 1 3 cbr 1000 ------- 1 0.0 3.0 57 65
r 0.60661 2 4 tcp 1040 ------- 0 1.0 4.0 4 59
+ 0.60661 4 2 ack 40 ------- 0 4.0 1.0 4 69
- 0.60661 4 2 ack 40 ------- 0 4.0 1.0 4 69
r 0.60801 0 1 cbr 1000 ------- 1 0.0 3.0 59 67
+ 0.60801 1 3 cbr 1000 ------- 1 0.0 3.0 59 67
- 0.60801 1 3 cbr 1000 ------- 1 0.0 3.0 59 67
+ 0.61001 0 1 cbr 1000 ------- 1 0.0 3.0 61 70
- 0.61001 0 1 cbr 1000 ------- 1 0.0 3.0 61 70
r 0.61493 2 4 tcp 1040 ------- 0 1.0 4.0 5 60
r 0.61601 1 3 cbr 1000 ------- 1 0.0 3.0 58 66
r 0.61801 0 1 cbr 1000 ------- 1 0.0 3.0 60 68
+ 0.61801 1 3 cbr 1000 ------- 1 0.0 3.0 60 68
- 0.61801 1 3 cbr 1000 ------- 1 0.0 3.0 60 68
+ 0.62001 0 1 cbr 1000 ------- 1 0.0 3.0 62 71
- 0.62001 0 1 cbr 1000 ------- 1 0.0 3.0 62 71
r 0.62193 4 2 ack 40 ------- 0 4.0 1.0 4 69
+ 0.62193 2 0 ack 40 ------- 0 4.0 1.0 4 69
- 0.62193 2 0 ack 40 ------- 0 4.0 1.0 4 69
r 0.62601 1 3 cbr 1000 ------- 1 0.0 3.0 59 67
r 0.62801 0 1 cbr 1000 ------- 1 0.0 3.0 61 70
+ 0.62801 1 3 cbr 1000 ------- 1 0.0 3.0 61 70
- 0.62801 1 3 cbr 1000 ------- 1 0.0 3.0 61 70
+ 0.63001 0 1 cbr 1000 ------- 1 0.0 3.0 63 72
- 0.63001 0 1 cbr 1000 ------- 1 0.0 3.0 63 72
r 0.63601 1 3 cbr 1000 ------- 1 0.0 3.0 60 68
r 0.63801 0 1 cbr 1000 ------- 1 0.0 3.0 62 71
+ 0.63801 1 3 cbr 1000 ------- 1 0.0 3.0 62 71
- 0.63801 1 3 cbr 1000 ------- 1 0.0 3.0 62 71
+ 0.64001 0 1 cbr 1000 ------- 1 0.0 3.0 64 73
- 0.64001 0 1 cbr 1000 ------- 1 0.0 3.0 64 73
r 0.64225 2 0 ack 40 ------- 0 4.0 1.0 4 69
+ 0.64225 0 1 ack 40 ------- 0 4.0 1.0 4 69
r 0.64601 1 3 cbr 1000 ------- 1 0.0 3.0 61 70
r 0.64801 0 1 cbr 1000 ------- 1 0.0 3.0 63 72
+ 0.64801 1 3 cbr 1000 ------- 1 0.0 3.0 63 72
- 0.64801 1 3 cbr 1000 ------- 1 0.0 3.0 63 72
- 0.64801 0 1 ack 40 ------- 0 4.0 1.0 4 69
+ 0.65001 0 1 cbr 1000 ------- 1 0.0 3.0 65 74
- 0.65001 0 1 cbr 1000 ------- 1 0.0 3.0 65 74
r 0.65601 1 3 cbr 1000 ------- 1 0.0 3.0 62 71
r 0.65801 0 1 cbr 1000 ------- 1 0.0 3.0 64 73
+ 0.65801 1 3 cbr 1000 ------- 1 0.0 3.0 64 73
- 0.65801 1 3 cbr 1000 ------- 1 0.0 3.0 64 73
r 0.65833 0 1 ack 40 ------- 0 4.0 1.0 4 69
+ 0.65833 1 0 tcp 1040 ------- 0 1.0 4.0 6 75
- 0.65833 1 0 tcp 1040 ------- 0 1.0 4.0 6 75
+ 0.65833 1 0 tcp 1040 ------- 0 1.0 4.0 7 76
+ 0.65833 1 0 tcp 1040 ------- 0 1.0 4.0 8 77
+ 0.66001 0 1 cbr 1000 ------- 1 0.0 3.0 66 78
- 0.66001 0 1 cbr 1000 ------- 1 0.0 3.0 66 78
r 0.66601 1 3 cbr 1000 ------- 1 0.0 3.0 63 72
- 0.66665 1 0 tcp 1040 ------- 0 1.0 4.0 7 76
r 0.66801 0 1 cbr 1000 ------- 1 0.0 3.0 65 74
+ 0.66801 1 3 cbr 1000 ------- 1 0.0 3.0 65 74
- 0.66801 1 3 cbr 1000 ------- 1 0.0 3.0 65 74
+ 0.67001 0 1 cbr 1000 ------- 1 0.0 3.0 67 79
- 0.67001 0 1 cbr 1000 ------- 1 0.0 3.0 67 79
- 0.67497 1 0 tcp 1040 ------- 0 1.0 4.0 8 77
r 0.67601 1 3 cbr 1000 ------- 1 0.0 3.0 64 73
r 0.67665 1 0 tcp 1040 ------- 0 1.0 4.0 6 75
+ 0.67665 0 2 tcp 1040 ------- 0 1.0 4.0 6 75
- 0.67665 0 2 tcp 1040 ------- 0 1.0 4.0 6 75
r 0.67801 0 1 cbr 1000 ------- 1 0.0 3.0 66 78
+ 0.67801 1 3 cbr 1000 ------- 1 0.0 3.0 66 78
- 0.67801 1 3 cbr 1000 ------- 1 0.0 3.0 66 78
+ 0.68001 0 1 cbr 1000 ------- 1 0.0 3.0 68 80
- 0.68001 0 1 cbr 1000 ------- 1 0.0 3.0 68 80
r 0.68497 1 0 tcp 1040 ------- 0 1.0 4.0 7 76
+ 0.68497 0 2 tcp 1040 ------- 0 1.0 4.0 7 76
- 0.68497 0 2 tcp 1040 ------- 0 1.0 4.0 7 76
r 0.68601 1 3 cbr 1000 ------- 1 0.0 3.0 65 74
r 0.68801 0 1 cbr 1000 ------- 1 0.0 3.0 67 79
+ 0.68801 1 3 cbr 1000 ------- 1 0.0 3.0 67 79
- 0.68801 1 3 cbr 1000 ------- 1 0.0 3.0 67 79
+ 0.69001 0 1 cbr 1000 ------- 1 0.0 3.0 69 81
- 0.69001 0 1 cbr 1000 ------- 1 0.0 3.0 69 81
r 0.69329 1 0 tcp 1040 ------- 0 1.0 4.0 8 77
+ 0.69329 0 2 tcp 1040 ------- 0 1.0 4.0 8 77
- 0.69329 0 2 tcp 1040 ------- 0 1.0 4.0 8 77
r 0.69601 1 3 cbr 1000 ------- 1 0.0 3.0 66 78
r 0.69801 0 1 cbr 1000 ------- 1 0.0 3.0 68 80
+ 0.69801 1 3 cbr 1000 ------- 1 0.0 3.0 68 80
- 0.69801 1 3 cbr 1000 ------- 1 0.0 3.0 68 80
+ 0.70001 0 1 cbr 1000 ------- 1 0.0 3.0 70 82
- 0.70001 0 1 cbr 1000 ------- 1 0.0 3.0 70 82
r 0.70497 0 2 tcp 1040 ------- 0 1.0 4.0 6 75
+ 0.70497 2 4 tcp 1040 ------- 0 1.0 4.0 6 75
- 0.70497 2 4 tcp 1040 ------- 0 1.0 4.0 6 75
r 0.70601 1 3 cbr 1000 ------- 1 0.0 3.0 67 79
r 0.70801 0 1 cbr 1000 ------- 1 0.0 3.0 69 81
+ 0.70801 1 3 cbr 1000 ------- 1 0.0 3.0 69 81
- 0.70801 1 3 cbr 1000 ------- 1 0.0 3.0 69 81
+ 0.71001 0 1 cbr 1000 ------- 1 0.0 3.0 71 83
- 0.71001 0 1 cbr 1000 ------- 1 0.0 3.0 71 83
r 0.71329 0 2 tcp 1040 ------- 0 1.0 4.0 7 76
+ 0.71329 2 4 tcp 1040 ------- 0 1.0 4.0 7 76
- 0.71329 2 4 tcp 1040 ------- 0 1.0 4.0 7 76
+ 0.71493 4 2 ack 40 ------- 0 4.0 1.0 5 84
- 0.71493 4 2 ack 40 ------- 0 4.0 1.0 5 84
r 0.71601 1 3 cbr 1000 ------- 1 0.0 3.0 68 80
r 0.71801 0 1 cbr 1000 ------- 1 0.0 3.0 70 82
+ 0.71801 1 3 cbr 1000 ------- 1 0.0 3.0 70 82
- 0.71801 1 3 cbr 1000 ------- 1 0.0 3.0 70 82
+ 0.72001 0 1 cbr 1000 ------- 1 0.0 3.0 72 85
- 0.72001 0 1 cbr 1000 ------- 1 0.0 3.0 72 85
r 0.72161 0 2 tcp 1040 ------- 0 1.0 4.0 8 77
+ 0.72161 2 4 tcp 1040 ------- 0 1.0 4.0 8 77
- 0.72161 2 4 tcp 1040 ------- 0 1.0 4.0 8 77
r 0.72601 1 3 cbr 1000 ------- 1 0.0 3.0 69 81
r 0.72801 0 1 cbr 1000 ------- 1 0.0 3.0 71 83
+ 0.72801 1 3 cbr 1000 ------- 1 0.0 3.0 71 83
- 0.72801 1 3 cbr 1000 ------- 1 0.0 3.0 71 83
r 0.72829 2 4 tcp 1040 ------- 0 1.0 4.0 6 75
+ 0.73001 0 1 cbr 1000 ------- 1 0.0 3.0 73 86
- 0.73001 0 1 cbr 1000 ------- 1 0.0 3.0 73 86
r 0.73025 4 2 ack 40 ------- 0 4.0 1.0 5 84
+ 0.73025 2 0 ack 40 ------- 0 4.0 1.0 5 84
- 0.73025 2 0 ack 40 ------- 0 4.0 1.0 5 84
r 0.73601 1 3 cbr 1000 ------- 1 0.0 3.0 70 82
r 0.73661 2 4 tcp 1040 ------- 0 1.0 4.0 7 76
+ 0.73661 4 2 ack 40 ------- 0 4.0 1.0 7 87
- 0.73661 4 2 ack 40 ------- 0 4.0 1.0 7 87
r 0.73801 0 1 cbr 1000 ------- 1 0.0 3.0 72 85
+ 0.73801 1 3 cbr 1000 ------- 1 0.0 3.0 72 85
- 0.73801 1 3 cbr 1000 ------- 1 0.0 3.0 72 85
+ 0.74001 0 1 cbr 1000 ------- 1 0.0 3.0 74 88
- 0.74001 0 1 cbr 1000 ------- 1 0.0 3.0 74 88
r 0.74493 2 4 tcp 1040 ------- 0 1.0 4.0 8 77
r 0.74601 1 3 cbr 1000 ------- 1 0.0 3.0 71 83
r 0.74801 0 1 cbr 1000 ------- 1 0.0 3.0 73 86
+ 0.74801 1 3 cbr 1000 ------- 1 0.0 3.0 73 86
- 0.74801 1 3 cbr 1000 ------- 1 0.0 3.0 73 86
+ 0.75001 0 1 cbr 1000 ------- 1 0.0 3.0 75 89
- 0.75001 0 1 cbr 1000 ------- 1 0.0 3.0 75 89
r 0.75057 2 0 ack 40 ------- 0 4.0 1.0 5 84
+ 0.75057 0 1 ack 40 ------- 0 4.0 1.0 5 84
r 0.75193 4 2 ack 40 ------- 0 4.0 1.0 7 87
+ 0.75193 2 0 ack 40 ------- 0 4.0 1.0 7 87
- 0.75193 2 0 ack 40 ------- 0 4.0 1.0 7 87
r 0.75601 1 3 cbr 1000 ------- 1 0.0 3.0 72 85
r 0.75801 0 1 cbr 1000 ------- 1 0.0 3.0 74 88
+ 0.75801 1 3 cbr 1000 ------- 1 0.0 3.0 74 88
- 0.75801 1 3 cbr 1000 ------- 1 0.0 3.0 74 88
- 0.75801 0 1 ack 40 ------- 0 4.0 1.0 5 84
+ 0.76001 0 1 cbr 1000 ------- 1 0.0 3.0 76 90
- 0.76001 0 1 cbr 1000 ------- 1 0.0 3.0 76 90
r 0.76601 1 3 cbr 1000 ------- 1 0.0 3.0 73 86
r 0.76801 0 1 cbr 1000 ------- 1 0.0 3.0 75 89
+ 0.76801 1 3 cbr 1000 ------- 1 0.0 3.0 75 89
- 0.76801 1 3 cbr 1000 ------- 1 0.0 3.0 75 89
r 0.76833 0 1 ack 40 ------- 0 4.0 1.0 5 84
+ 0.76833 1 0 tcp 1040 ------- 0 1.0 4.0 9 91
- 0.76833 1 0 tcp 1040 ------- 0 1.0 4.0 9 91
+ 0.76833 1 0 tcp 1040 ------- 0 1.0 4.0 10 92
+ 0.77001 0 1 cbr 1000 ------- 1 0.0 3.0 77 93
- 0.77001 0 1 cbr 1000 ------- 1 0.0 3.0 77 93
r 0.77225 2 0 ack 40 ------- 0 4.0 1.0 7 87
+ 0.77225 0 1 ack 40 ------- 0 4.0 1.0 7 87
r 0.77601 1 3 cbr 1000 ------- 1 0.0 3.0 74 88
- 0.77665 1 0 tcp 1040 ------- 0 1.0 4.0 10 92
r 0.77801 0 1 cbr 1000 ------- 1 0.0 3.0 76 90
+ 0.77801 1 3 cbr 1000 ------- 1 0.0 3.0 76 90
- 0.77801 1 3 cbr 1000 ------- 1 0.0 3.0 76 90
- 0.77801 0 1 ack 40 ------- 0 4.0 1.0 7 87
+ 0.78001 0 1 cbr 1000 ------- 1 0.0 3.0 78 94
- 0.78001 0 1 cbr 1000 ------- 1 0.0 3.0 78 94
r 0.78601 1 3 cbr 1000 ------- 1 0.0 3.0 75 89
r 0.78665 1 0 tcp 1040 ------- 0 1.0 4.0 9 91
+ 0.78665 0 2 tcp 1040 ------- 0 1.0 4.0 9 91
- 0.78665 0 2 tcp 1040 ------- 0 1.0 4.0 9 91
r 0.78801 0 1 cbr 1000 ------- 1 0.0 3.0 77 93
+ 0.78801 1 3 cbr 1000 ------- 1 0.0 3.0 77 93
- 0.78801 1 3 cbr 1000 ------- 1 0.0 3.0 77 93
r 0.78833 0 1 ack 40 ------- 0 4.0 1.0 7 87
+ 0.78833 1 0 tcp 1040 ------- 0 1.0 4.0 11 95
- 0.78833 1 0 tcp 1040 ------- 0 1.0 4.0 11 95
+ 0.78833 1 0 tcp 1040 ------- 0 1.0 4.0 12 96
+ 0.78833 1 0 tcp 1040 ------- 0 1.0 4.0 13 97
+ 0.79001 0 1 cbr 1000 ------- 1 0.0 3.0 79 98
- 0.79001 0 1 cbr 1000 ------- 1 0.0 3.0 79 98
r 0.79497 1 0 tcp 1040 ------- 0 1.0 4.0 10 92
+ 0.79497 0 2 tcp 1040 ------- 0 1.0 4.0 10 92
- 0.79497 0 2 tcp 1040 ------- 0 1.0 4.0 10 92
r 0.79601 1 3 cbr 1000 ------- 1 0.0 3.0 76 90
- 0.79665 1 0 tcp 1040 ------- 0 1.0 4.0 12 96
r 0.79801 0 1 cbr 1000 ------- 1 0.0 3.0 78 94
+ 0.79801 1 3 cbr 1000 ------- 1 0.0 3.0 78 94
- 0.79801 1 3 cbr 1000 ------- 1 0.0 3.0 78 94
+ 0.80001 0 1 cbr 1000 ------- 1 0.0 3.0 80 99
- 0.80001 0 1 cbr 1000 ------- 1 0.0 3.0 80 99
- 0.80497 1 0 tcp 1040 ------- 0 1.0 4.0 13 97
r 0.80601 1 3 cbr 1000 ------- 1 0.0 3.0 77 93
r 0.80665 1 0 tcp 1040 ------- 0 1.0 4.0 11 95
+ 0.80665 0 2 tcp 1040 ------- 0 1.0 4.0 11 95
- 0.80665 0 2 tcp 1040 ------- 0 1.0 4.0 11 95
r 0.80801 0 1 cbr 1000 ------- 1 0.0 3.0 79 98
+ 0.80801 1 3 cbr 1000 ------- 1 0.0 3.0 79 98
- 0.80801 1 3 cbr 1000 ------- 1 0.0 3.0 79 98
+ 0.81001 0 1 cbr 1000 ------- 1 0.0 3.0 81 100
- 0.81001 0 1 cbr 1000 ------- 1 0.0 3.0 81 100
r 0.81497 0 2 tcp 1040 ------- 0 1.0 4.0 9 91
+ 0.81497 2 4 tcp 1040 ------- 0 1.0 4.0 9 91
- 0.81497 2 4 tcp 1040 ------- 0 1.0 4.0 9 91
r 0.81497 1 0 tcp 1040 ------- 0 1.0 4.0 12 96
+ 0.81497 0 2 tcp 1040 ------- 0 1.0 4.0 12 96
- 0.81497 0 2 tcp 1040 ------- 0 1.0 4.0 12 96
r 0.81601 1 3 cbr 1000 ------- 1 0.0 3.0 78 94
r 0.81801 0 1 cbr 1000 ------- 1 0.0 3.0 80 99
+ 0.81801 1 3 cbr 1000 ------- 1 0.0 3.0 80 99
- 0.81801 1 3 cbr 1000 ------- 1 0.0 3.0 80 99
+ 0.82001 0 1 cbr 1000 ------- 1 0.0 3.0 82 101
- 0.82001 0 1 cbr 1000 ------- 1 0.0 3.0 82 101
r 0.82329 0 2 tcp 1040 ------- 0 1.0 4.0 10 92
+ 0.82329 2 4 tcp 1040 ------- 0 1.0 4.0 10 92
r 0.82329 1 0 tcp 1040 ------- 0 1.0 4.0 13 97
+ 0.82329 0 2 tcp 1040 ------- 0 1.0 4.0 13 97
- 0.82329 2 4 tcp 1040 ------- 0 1.0 4.0 10 92
- 0.82329 0 2 tcp 1040 ------- 0 1.0 4.0 13 97
r 0.82601 1 3 cbr 1000 ------- 1 0.0 3.0 79 98